# vtk DataFile Version 3.0
vtk output
ASCII
DATASET RECTILINEAR_GRID
DIMENSIONS 41 41 1
X_COORDINATES 41 double
0 1 2 3 4 5 6 7 8 9 10 11 12 13 14 15 16 17 18 19 20 21 22 23 24 25 26 27 28 29 30 31 32 33 34 35 36 37 38 39 40 
Y_COORDINATES 41 double
0 1 2 3 4 5 6 7 8 9 10 11 12 13 14 15 16 17 18 19 20 21 22 23 24 25 26 27 28 29 30 31 32 33 34 35 36 37 38 39 40 
Z_COORDINATES 1 double
0
POINT_DATA 1681
FIELD FieldData 1
Concentracao 1 1681 double
1.0 1.0 1.0 1.0 1.0 1.0 1.0 1.0 0.9999999999999999 0.9999999999999999 0.9999999999999999 0.9999999999999998 0.9999999999999997 0.9999999999999996 0.9999999999999998 0.9999999999999998 0.9999999999999999 0.9999999999999999 0.9999999999999999 0.9999999999999999 1.0 1.0 1.0 1.0 1.0 0.9999999999999998 0.9999999999999998 0.9999999999999999 0.9999999999999999 0.9999999999999998 0.9999999999999999 0.9999999999999998 0.9999999999999998 0.9999999999999998 0.9999999999999999 0.9999999999999997 0.9999999999999992 0.9999999999990951 0.9999999924705664 0.999906948124539 7.204002342524127e-05 1.0 1.0 1.0 0.9999999999999999 0.9999999999999996 1.0 1.0000000000000002 1.0000000000000002 1.0000000000000002 1.0 1.0000000000000002 0.9999999999999999 0.9999999999999998 1.0 0.9999999999999994 0.9999999999999991 0.9999999999999991 0.9999999999999992 0.9999999999999991 0.9999999999999991 0.9999999999999993 0.9999999999999991 0.9999999999999991 0.9999999999999988 0.9999999999999991 0.9999999999999988 0.9999999999999989 0.9999999999999989 0.9999999999999989 0.9999999999999991 0.9999999999999991 0.9999999999999991 0.9999999999999989 0.9999999999999989 0.9999999999999989 0.9999999999999989 0.9999999999999986 0.9999999999991298 0.9999999925976741 0.9999074773393343 7.204005305360347e-05 1.0 1.0 1.0 1.0000000000000002 0.9999999999999998 1.0 1.0 0.9999999999999997 0.9999999999999998 0.9999999999999996 0.9999999999999993 0.999999999999999 0.9999999999999991 0.9999999999999993 0.9999999999999993 0.9999999999999991 0.9999999999999991 0.9999999999999988 0.9999999999999987 0.9999999999999984 0.9999999999999982 0.9999999999999983 0.9999999999999982 0.9999999999999984 0.9999999999999984 0.9999999999999987 0.9999999999999987 0.9999999999999984 0.9999999999999984 0.999999999999998 0.9999999999999982 0.9999999999999982 0.9999999999999981 0.9999999999999981 0.9999999999999979 0.999999999999998 0.9999999999999979 0.999999999999189 0.9999999928137194 0.999908247572889 7.204008463830866e-05 1.0 0.9999999999999999 1.0 1.0 1.0 0.9999999999999998 0.9999999999999997 0.9999999999999998 0.9999999999999996 0.9999999999999996 0.9999999999999992 0.999999999999999 0.999999999999999 0.9999999999999992 0.999999999999999 0.9999999999999989 0.9999999999999986 0.999999999999998 0.9999999999999973 0.9999999999999971 0.9999999999999967 0.9999999999999959 0.9999999999999953 0.999999999999995 0.9999999999999943 0.9999999999999936 0.9999999999999929 0.9999999999999922 0.9999999999999917 0.999999999999991 0.9999999999999906 0.9999999999999901 0.9999999999999901 0.9999999999999906 0.9999999999999917 0.9999999999999932 0.9999999999999948 0.999999999999263 0.9999999930226628 0.9999086548914786 7.204011566847974e-05 0.9999999999908625 0.9999999999901534 0.9999999999883891 0.99999999998541 0.9999999999810218 0.9999999999750987 0.9999999999675641 0.999999999958387 0.9999999999475682 0.9999999999351304 0.9999999999211054 0.9999999999055266 0.9999999998884246 0.9999999998698241 0.9999999998497451 0.999999999828203 0.9999999998052089 0.9999999997807719 0.9999999997548996 0.999999999727601 0.9999999996988888 0.9999999996687835 0.9999999996373221 0.9999999996045705 0.9999999995706512 0.9999999995357857 0.9999999995003754 0.9999999994651391 0.9999999994313555 0.9999999994012707 0.9999999993786979 0.9999999993701516 0.9999999993847477 0.9999999994391805 0.9999999995425104 0.999999999696534 0.9999999998233164 0.9999999999202791 0.999999993054386 0.9999075981567402 7.204014300777462e-05 0.9999956174499548 0.9999954643986619 0.999995115812669 0.9999945801588966 0.9999938820119122 0.9999930510826981 0.9999921180327279 0.9999911093295092 0.9999900460959458 0.9999889444011165 0.9999878159628712 0.9999866691721118 0.9999855098215555 0.9999843419069722 0.9999831680874313 0.9999819901608291 0.9999808093247876 0.9999796263832778 0.9999784419797617 0.9999772566469213 0.9999760710254729 0.9999748859332913 0.999973702730737 0.9999725237746242 0.9999713530968535 0.9999701977118702 0.9999690699789725 0.9999679914667745 0.9999669998627486 0.9999661604183381 0.9999655885859929 0.9999654696183872 0.9999662072048999 0.9999679603463202 0.9999740481683632 0.9999806680560136 0.9999920024582631 0.9999971776167554 0.9999993025783502 0.9999036540013039 7.204016267490077e-05 0.023897342442855612 0.02377381801642898 0.023460768619578104 0.02299907045180853 0.0224366045429997 0.021812842730995867 0.021155509794312587 0.020481763073791712 0.019800712572019475 0.019118826581805 0.018438596407492458 0.017761994250190594 0.017090389754022658 0.01642364791166872 0.01576259558617299 0.015107215533703925 0.014457723798961191 0.013813812826050778 0.013175444669339438 0.012542584012867551 0.011915456015890247 0.011293559268712125 0.010676676241077767 0.010064866307402163 0.009457754346514486 0.00885457251534525 0.008255124015743942 0.007658432898935354 0.007063504878008321 0.0064678701402497525 0.005870373466330696 0.005260410354464087 0.004659477345296555 0.00390155504358374 0.003990516537646973 0.9999606987062508 0.9999806348528515 0.9999938225332521 0.9999984218519508 0.9998946040906702 7.204016782079828e-05 0.000286165479779223 0.0002833387244619412 0.00027621950477412275 0.0002658152992389778 0.0002533018955345503 0.0002396581294971904 0.00022559522480659566 0.0002115489305197303 0.0001977744634560231 0.0001844201355327176 0.00017157177523999427 0.00015930280753702656 0.00014770607146342543 0.00013692301095685817 0.00012716988858169979 0.00011870172266235133 0.00011173242900065738 0.00010635162473363535 0.00010246329982887388 9.97968181197453e-05 9.799255186887791e-05 9.670953234153686e-05 9.569405590773562e-05 9.480244485274251e-05 9.396638236798329e-05 9.316378539547254e-05 9.239323293012188e-05 9.165481287177601e-05 9.094529632167769e-05 9.025489572962705e-05 8.957069040373226e-05 8.886900997065017e-05 8.811843894701524e-05 8.720711168028727e-05 0.00017005899528526876 0.9999600392899605 0.9999808418612883 0.9999928973251607 0.9999981814078229 0.9998780717618938 7.204014664521761e-05 2.2880068367593474e-06 2.2356642277818288e-06 2.1206306960609644e-06 1.975654443751242e-06 1.9380049526705296e-06 3.063129350315037e-06 1.2441133648301885e-05 6.789854254766984e-05 0.0003313429828693273 0.0013648765132124535 0.004758806408401497 0.014170897295411504 0.036351697717975376 0.08096710485560754 0.1577914969326311 0.27124512779104903 0.4150590568577435 0.57152178567613 0.7174826911154984 0.8340453560108644 0.9135525960421993 0.9597768928934918 0.9826796848551862 0.9924280802317814 0.996119505347272 0.9975074264105277 0.9981497562255575 0.9985632853515862 0.9988884414399546 0.9991589396299664 0.9993839971776529 0.9995678365308055 0.9997133772045013 0.9998237480925303 0.9998992723237684 0.9999517897855785 0.9999422292429655 0.999751133555634 0.9982742652876163 0.9717981528452788 7.200184019287391e-05 3.3820810197732075e-07 3.2896245484327817e-07 3.10832982248142e-07 2.9638060850779005e-07 3.93419202767885e-07 1.5490055319200152e-06 1.0252796025390692e-05 6.147554033816256e-05 0.00030631998457306825 0.0012744373250417928 0.0044796801437195525 0.013441753427093084 0.034737396554425135 0.07792882703728547 0.1529288552345847 0.26463081188093734 0.40744409818258115 0.5641781946219078 0.7116927236206226 0.8305472921232268 0.9123182414022092 0.9602078453500674 0.9840121066870783 0.9940468808377813 0.9976640128057568 0.9988222663815534 0.999194551002368 0.9993460678308659 0.9994326934778285 0.9994911359068339 0.9995293564870968 0.9995484640682022 0.9995465270448148 0.9995174337865217 0.999451775554684 0.9992634783278368 0.9987124283236518 0.9966086251453388 0.9854001962975322 0.9072719814298119 7.186966442972023e-05 7.400141161592435e-08 7.177429982179375e-08 6.7962526608834e-08 7.045787362637665e-08 1.677172284360263e-07 1.1657439248368067e-06 8.678922982663618e-06 5.342357344697313e-05 0.0002701542346634147 0.0011386719592035453 0.004052572865327921 0.01230825696473357 0.032183066891203864 0.07302055387661918 0.14485675948628943 0.2532501569486694 0.39367908944487223 0.5498943984166836 0.698997904942221 0.8209131797415354 0.906107770551425 0.9568380859624593 0.9824941479306238 0.9934852992396127 0.9974747378232862 0.998709663836836 0.999037921366883 0.9991031944221573 0.9990875182928582 0.9990319112635506 0.9989396363503624 0.9988006567773176 0.9985916819626693 0.9982662436765264 0.9977028170555703 0.9965395284424369 0.9936937055665168 0.9855126822483636 0.9566053299311851 0.8238773642619577 7.159721297264505e-05 1.9403785807203612e-08 1.878839874293609e-08 1.7972071836789437e-08 2.2536992613406318e-08 1.0186720544815401e-07 9.045669741244244e-07 7.0427988960950345e-06 4.4273557337514926e-05 0.00022795927768305628 0.0009775806158702105 0.0035381130656494592 0.010921954107124819 0.029010082255078163 0.06682245286354135 0.13448470480362698 0.23834444785330858 0.37524979946371784 0.5302722371892111 0.6809969367759019 0.8066761184300573 0.8963814190772876 0.9510540580886844 0.9794257304171445 0.9919252739935693 0.996582635378559 0.9980279758724825 0.9983584849969809 0.9983364591953001 0.9981848293263162 0.9979494170077434 0.997620426098634 0.9971584548874411 0.9964848854015493 0.9954387984025287 0.993653374622257 0.9902438172277112 0.9829164778461438 0.9649705427840854 0.913632475788149 0.738472451386428 7.11479989159806e-05 5.651589581647976e-09 5.468547213350557e-09 5.351269616288039e-09 9.209180649560693e-09 6.837988593623023e-08 6.759631655360597e-07 5.429645297560539e-06 3.4947501706039746e-05 0.00018400424579553278 0.0008063880658763202 0.002980683171423047 0.009390615957643922 0.025437084525629847 0.05970323935875898 0.1223268458455208 0.22049293618013519 0.35266745846976255 0.5056167018031129 0.6577273540101723 0.7876541413743366 0.8828550379822261 0.9425961862991235 0.9746390195455052 0.9892918596969434 0.9949693958884532 0.996773314704387 0.9971358278950151 0.996990213362765 0.9966218221176865 0.9960831607139696 0.9953401945629448 0.9943004635600055 0.9927865290655659 0.9904519247742589 0.9865818550764764 0.9796099870399182 0.9658595151394829 0.9358706123633308 0.8626202190080337 0.6587974359361516 7.048978342911785e-05 1.7612136753084241e-09 1.7046044891165149e-09 1.7376044765567544e-09 4.465285427031146e-09 4.556645699681449e-08 4.786389836584689e-07 3.964909487414087e-06 2.6237631023135945e-05 0.00014191373333774683 0.0006384348257059062 0.0024205638188807394 0.007815150252424165 0.021673770440098664 0.052028061051378756 0.10890384935117697 0.20029598379981856 0.32644719295562324 0.47617790441489827 0.6290734391213517 0.7633979297932069 0.8648963857556985 0.9308217801777108 0.9676037205316635 0.9852051141640428 0.9923783829660472 0.9947625022372616 0.9952155118803272 0.9949082229563567 0.9942213110340432 0.9932214819838247 0.9918416168978453 0.9899138997278419 0.9871261259919019 0.9828977315332244 0.9761060315953998 0.964468794084673 0.9430675595218959 0.90052792273602 0.8083102324620625 0.587986589332363 6.959398451943769e-05 5.744734837483157e-10 5.566520976643484e-10 6.041125737454404e-10 2.3446760822236308e-09 2.9000113171320872e-08 3.1921430196599104e-07 2.735478270324818e-06 1.869801873129195e-05 0.00010438660610294812 0.00048430037684482575 0.0018918460875795885 0.0062863540245995065 0.017920828506421297 0.044163751057055285 0.09477269459117628 0.17843674220232655 0.29723854572797925 0.442359554834188 0.5950253922085467 0.7334615264561747 0.8417481254452901 0.9148706342147356 0.9575349799686049 0.9790460145828226 0.9883598070570649 0.9916697490862308 0.9923419595331899 0.9918632097120396 0.990757304278403 0.9891238674305358 0.9868616875905307 0.9837142124416838 0.9792137484387354 0.9725256500036782 0.9621189350741822 0.9450720068625884 0.915533648811821 0.8611115154420942 0.7538581232183363 0.5260725605175587 6.843345582814113e-05 1.933246207459796e-10 1.8770719585246898e-10 2.212303361383309e-10 1.2405272526704596e-09 1.7346689377101986e-08 1.996041097054066e-07 1.7773492487757204e-06 1.261201164780933e-05 7.303766418496976e-05 0.0003511716685403976 0.0014200024642616223 0.0048778900990495 0.014354672822823409 0.036459402100832476 0.08050205630297387 0.1556753736283866 0.2658508887147467 0.40478497841426775 0.5558007081040296 0.6975490321470281 0.81266825183917 0.8937503536152516 0.9434138124602208 0.969926657889875 0.9822146212258633 0.986966140035772 0.9881053844131149 0.9875140590408338 0.9859209362970894 0.983492513729883 0.9801057894745802 0.9754159311224763 0.968798420100808 0.9591740068122481 0.9446507344828149 0.9218090823226707 0.8842245451926283 0.8192719339638643 0.7008737106127001 0.47203238754150423 6.69809110509946e-05 6.642986855922135e-11 6.467097669488576e-11 8.366488191583815e-11 6.324989529424359e-10 9.663074081143274e-09 1.1647464597328168e-07 1.083185380271557e-06 8.021833474056572e-06 4.8444792956049807e-05 0.00024265152451545305 0.001020808408920154 0.0036425645380405007 0.011115159172709152 0.02921835426756862 0.06663452092472776 0.13280946741186442 0.23323472322117075 0.36433582214316196 0.5119340272869926 0.6556504190097406 0.777074232982167 0.866449332451824 0.9240349461514085 0.9566658299335585 0.972916660981012 0.979816710647442 0.981836033313678 0.9813090367485257 0.9792357474905399 0.9758980039887507 0.9711794150587321 0.9646643399020004 0.9555896485434638 0.9426668343126049 0.9237218798658555 0.8950072852709837 0.8498635887738124 0.7760290590221368 0.649979775952504 0.4245242091556744 6.520600447911379e-05 2.3123777202385087e-11 2.2575463413199027e-11 3.193097891295627e-11 3.026946501152739e-10 4.9745067121897535e-09 6.305963660176613e-08 6.158761372441537e-07 4.787738514287244e-06 3.0326921511104027e-05 0.00015914727056704801 0.000700381742724305 0.0026096636971502593 0.008298363015315025 0.02268046119799971 0.05364723909658917 0.11061356339610016 0.20041945784544304 0.3221095401311067 0.4643089007324505 0.6081568640680394 0.7347152197848003 0.8321125857409677 0.8981292278528454 0.9378253476972978 0.9590616019301664 0.9689641022425791 0.9724542027967791 0.9723268891511864 0.96990407608203 0.9656355844080312 0.9594538323180546 0.9509063769632033 0.9391282544654955 0.9226769953447077 0.8991932189906597 0.8647752522335393 0.8128212805147332 0.7318405309493994 0.601164137068655 0.38222633452802074 6.30717202312295e-05 8.10120932661364e-12 7.929415147392583e-12 1.2017265489703226e-11 1.33637218799312e-10 2.347627017559225e-09 3.145270677925648e-08 3.2452521841500377e-07 2.664624708095596e-06 1.7815321816859146e-05 9.855978473869293e-05 0.00045653451136308515 0.0017868079619157604 0.005954008049937227 0.017006644236116707 0.041917470472084176 0.0897810127280196 0.16843522853844833 0.27936045957393335 0.4141442071586851 0.5559321258244839 0.6858353535547077 0.7902629952068154 0.8645795795676269 0.9118536462176816 0.9389010617098178 0.9526533279455364 0.9583091589263433 0.9590638106458856 0.9565702329980373 0.9514845976577428 0.9438319746528858 0.9331673691167182 0.9185744017313896 0.8985260239248609 0.8705833558654839 0.830853454649921 0.7730294555978646 0.6866662615865435 0.5540022805079862 0.34392289791210673 6.052809590067966e-05 2.840558029496978e-12 2.785453125236629e-12 4.374751440946688e-12 5.3705939342632914e-11 1.0065414506265347e-09 1.4329465740000956e-08 1.571797792256229e-07 1.3722340971134347e-06 9.750397634283095e-06 5.726320548457228e-05 0.00028109816689278824 0.0011633794180908993 0.004088106503839352 0.012276008370458343 0.031699521997445725 0.07086650188629555 0.1382235724749613 0.2373807886435902 0.3628962647399514 0.5002868932465446 0.6312691592548076 0.7410120745227576 0.8226958312589185 0.8773498172528207 0.9105196736762604 0.9286767399753534 0.9370865991709264 0.9392240841367633 0.937029742417264 0.9313699599743454 0.9223896449327854 0.909691902185368 0.8923624546818675 0.8688637447768411 0.8367827802945716 0.7923836396488694 0.7298410602182441 0.6399268571008657 0.5077151842208644 0.3084699975932919 5.750017282876317e-05 9.91754205680534e-13 9.734956763453329e-13 1.5212377245923799e-12 1.9417229776180888e-11 3.880192449054742e-10 5.9019269242392486e-09 6.926919083815473e-08 6.475384346922913e-07 4.926236656898816e-06 3.0949145216225226e-05 0.00016226081956595165 0.0007155516183432358 0.0026712850821417047 0.008491766581418597 0.023119880379679783 0.05425449539902491 0.11055445048011121 0.19737592537688142 0.3121138640568081 0.44287421048650777 0.5724326075906386 0.6851975128291823 0.7724906152460712 0.8334132857141306 0.8721723972606444 0.8946145760098052 0.9058968689457252 0.9096410657421244 0.9079972223461413 0.9020099689488671 0.891943318884489 0.8774690686366343 0.8577168447722247 0.8312023748666441 0.7956324224105843 0.7475531631870262 0.6817639756543256 0.590352550997158 0.46108698872189585 0.2746848628045919 5.38695752163815e-05 3.431251958643053e-13 3.369329107830432e-13 5.032644782708628e-13 6.24819566327693e-12 1.3294317095584787e-10 2.1714842109676578e-09 2.7443905764624983e-08 2.766968897927211e-07 2.27165659549767e-06 1.539566258199879e-05 8.695481468113551e-05 0.0004121644025703281 0.0016488259580718918 0.00559462569500734 0.016184106951502172 0.04014278968146148 0.08596962408700927 0.16034449162610606 0.2632603262803737 0.3854905852558191 0.5111870905906664 0.6243774167229024 0.714847987510882 0.7799785459267109 0.82272001697092 0.8482789181728775 0.8616388618778139 0.8664940829673865 0.8651478711374575 0.8587861404555777 0.8477744012142303 0.8318514812586013 0.8102066329587687 0.781449679275756 0.7434732352409764 0.6931971105692359 0.6261426784679847 0.5357578752160802 0.4123287261032421 0.24123635497507495 4.945264932804354e-05 1.170857206061229e-13 1.1498773413984014e-13 1.5926539312333137e-13 1.7736177188787471e-12 3.998826358710641e-11 7.042550673398215e-10 9.639559271925633e-09 1.0555831730644393e-07 9.427927891722197e-07 6.9543800816016415e-06 4.271986034628713e-05 0.00021981843751959885 0.0009517570898962024 0.003481133307244657 0.010799902160563582 0.028558732301080456 0.06476911142707434 0.12700104525531683 0.2175563603777674 0.32985421874012677 0.4495975379841561 0.5606610953518144 0.6515114651886639 0.7180081160437531 0.762023854874875 0.7882617377113305 0.8016243111703348 0.8059334102867124 0.8036779383201677 0.7961991733727051 0.7839634300473688 0.7667688781305672 0.7438594582615125 0.713946591652101 0.6751379692228442 0.6247755100762928 0.5591491114724012 0.47305258721282767 0.35909160305191795 0.2066192149261905 4.4002313859724e-05 3.921482805272224e-14 3.852701604476412e-14 4.8865203118366354e-14 4.421201002880261e-13 1.043291333380143e-11 1.9854886130668622e-10 2.956376075668941e-09 3.5376823055909435e-08 3.463782523719448e-07 2.8059473523337106e-06 1.893694477208794e-05 0.00010694403355556647 0.0005069286549086511 0.0020219487015293762 0.006804523369125158 0.019390482182453244 0.047024484313610296 0.09774783367796248 0.17586260493622166 0.2773788350253257 0.3896364272647781 0.4964116633336602 0.5848738824385888 0.6494524523434672 0.6911380358641032 0.714399517335127 0.7243189880047791 0.7250806602414853 0.719525572473012 0.709256234765615 0.6948827299817967 0.6762629149741806 0.6526767316737564 0.6229200208401565 0.5853073783115547 0.5376040405580009 0.4768581412789121 0.39913473654504106 0.2991165130336223 0.16949234936805177 3.72885836583569e-05 1.2825820108271799e-14 1.2613372654106287e-14 1.4763534623847722e-14 9.72446482089268e-14 2.3367468018658354e-12 4.801722349068755e-11 7.795202208166841e-10 1.023718385636501e-08 1.1057224059614427e-07 9.91807138622393e-07 7.427587014542907e-06 4.656719512606562e-05 0.00024473083911915174 0.0010788340349526815 0.0039924763605208415 0.012425481701514487 0.0326284640162486 0.07270182650435726 0.13864084039584482 0.22902300859067057 0.33290756840343605 0.43388992476917426 0.5176152694668495 0.5769630834202795 0.6122133037231186 0.6279639290105419 0.6299731900520291 0.6231960200608995 0.6111552464064117 0.5958643514950379 0.5781171997409015 0.5577982313129808 0.534173183031579 0.5060750847619812 0.4719962767055621 0.4300913590507 0.37810320210310117 0.31323351531012417 0.23193126859200017 0.1295777431190623 2.931118691390649e-05 4.074379162433831e-15 4.013420506418267e-15 4.431522509928738e-15 1.9312009455887166e-14 4.463576728014291e-13 9.85387835396489e-12 1.7427578166259644e-10 2.5154652984002264e-09 3.0085371878577814e-08 3.0064809000366695e-07 2.5198928818427454e-06 1.7730805746068616e-05 0.00010466068757866076 0.0005174480854247687 0.0021394225702434998 0.007391578423104715 0.021356150541390898 0.05177058507746727 0.10599001124394776 0.18521798855729102 0.2804400362601994 0.37493608033719034 0.4523075514893682 0.503493884434573 0.5281161489671427 0.5315590909135733 0.520943388947865 0.5027809918943787 0.4815590044220648 0.4597930061023632 0.43826635130090585 0.41670150969189756 0.39420169113956505 0.369566449968288 0.3414210646670343 0.3082648994161176 0.2684492749331168 0.22011816579598295 0.16111549156195346 0.08883417294137068 2.0588080696370037e-05 1.2497022050758488e-15 1.233799528016588e-15 1.3232393392840775e-15 3.891109588858149e-15 8.009482628414547e-14 1.873048727878729e-12 3.566844839700621e-11 5.585812615838288e-10 7.295983710033853e-09 8.008028336738183e-08 7.40902791833412e-07 5.77909194792819e-06 3.8563471277649856e-05 0.00021695946920332655 0.0010194502910395075 0.0039848328330041325 0.012921857433637484 0.034751293915406475 0.07775733520002281 0.14589465731592224 0.23256790795487214 0.32072646606252614 0.3911250220002541 0.4318655991800796 0.44207169054416046 0.4286823171198053 0.4018903720506354 0.3703502622605042 0.3400068216156618 0.31309481936753775 0.28981334638748096 0.2691959089500336 0.24998104042793012 0.23086846285922485 0.21061420289863605 0.18804259838233034 0.16202483524778874 0.1314359085334402 0.09511213569400515 0.05178859653505586 1.2267542946560627e-05 3.676496702019195e-16 3.639658772335841e-16 3.860084047850424e-16 8.24529513187504e-16 1.392363402340761e-14 3.420454202801521e-13 7.000819109966993e-12 1.1877954032462217e-10 1.6919283205764369e-09 2.0367114132472498e-08 2.076910084134955e-07 1.793045062443968e-06 1.3294417555911797e-05 8.337038990920441e-05 0.0004376746958226715 0.0019141031454463638 0.007011227552677574 0.021439594822089708 0.05372087087571111 0.11061826653819971 0.18888430522187982 0.27162421145534105 0.3356556934654946 0.3647690058696183 0.3571331551159466 0.32366763652278 0.2794024507080019 0.23730698638390524 0.20252006384789428 0.17611695545101183 0.1559224089421962 0.13997358859428563 0.1266152122573899 0.1145661913454632 0.10281387253777445 0.09054066242656778 0.07706627089581619 0.06179749174224361 0.04420304567138037 0.023776468439285707 5.747892018114462e-06 1.0296734252853062e-16 1.0224480735426459e-16 1.0827329344135656e-16 1.8337817158798878e-16 2.3385427895597582e-15 5.956900132244671e-14 1.3081782615553817e-12 2.402000229504346e-11 3.7273813344000707e-10 4.915981582896457e-09 5.5193399011367045e-08 5.268189818555919e-07 4.334782529514557e-06 3.026284206286111e-05 0.00017729443162568895 0.00086673893611867 0.003553680701146593 0.01217446270162413 0.03412045096271233 0.07888002982119877 0.14832192811765607 0.22692786164030448 0.2869854762578364 0.30474560736279477 0.2769532577927454 0.22222742158709438 0.1639184174513645 0.11838517535731886 0.09039437414519624 0.07225898722088135 0.06015118014112387 0.05157868054587162 0.045084605928003195 0.03974495159289313 0.03495137142022119 0.030279444803715562 0.02541712095629926 0.020127935509200116 0.014225698642986133 0.0075601490522743476 1.86348230632213e-06 2.7217693148538405e-17 2.7116116110158082e-17 2.882011966511418e-17 4.1984219447532924e-17 3.792764671697051e-16 9.81165783211803e-15 2.307701083854497e-13 4.581912811823992e-12 7.740270812519396e-11 1.1176865149786351e-09 1.3806898285768563e-08 1.4559689914033706e-07 1.3283817638603016e-06 1.0315027979294834e-05 6.737515648324007e-05 0.0003678644199345626 0.0016869781974938522 0.006472544754151999 0.02031312465574904 0.05252583481785073 0.10994324640482703 0.18486230019924996 0.2449778684272105 0.2559793814959181 0.20515627211800957 0.12028537326724659 0.059620088317422666 0.0345072642429627 0.022354798370767086 0.01601109749216935 0.012316729535304044 0.00998249388524962 0.008373022536254455 0.00715841965922554 0.006149543170240766 0.005230154886131299 0.0043240202925247115 0.003379132400554591 0.002359203835532997 0.0012389104177399537 3.1115886177219556e-07 6.722152124788038e-18 6.720558587982868e-18 7.189242756224865e-18 9.593072557811738e-18 5.953747949111712e-17 1.5141856853817849e-15 3.8053442935659676e-14 8.165368109989615e-13 1.5009849891464484e-11 2.3721356884148276e-10 3.222839592675593e-09 3.7531615550318075e-08 3.7949841193411586e-07 3.275558052713216e-06 2.3835422736062323e-05 0.0001452214957311905 0.0007441074111954946 0.0031938866362030377 0.011219606808778272 0.03246025105644642 0.07594187157066408 0.14184657116980673 0.20732567679833627 0.22350043302773415 0.15212402766256436 3.6440367549289205e-05 1.6445484912854105e-05 1.2077848304295442e-05 8.674502602161677e-06 6.830448328046503e-06 5.696604661523826e-06 4.969485216931273e-06 4.456971315384874e-06 4.0486268517699485e-06 3.6710082270946415e-06 3.2712315045918914e-06 2.8105476441535362e-06 2.261778391619373e-06 1.6097424758382094e-06 8.522930942998585e-07 1.8855702816030138e-10 1.532679138722631e-18 1.5380115368654016e-18 1.6585358685612413e-18 2.1151495033519425e-18 9.088522571716015e-18 2.1661304010025863e-16 5.797396838744536e-15 1.343821887535907e-13 2.687571113813347e-12 4.6479544496654917e-11 6.944617234613476e-10 8.929905102630339e-09 1.0004364097239861e-07 9.594137617410297e-07 7.772952962145528e-06 5.280014010465522e-05 0.00030191448686183836 0.0014473588830134167 0.00568059174559314 0.018356747968803537 0.04792074820763361 0.09991378701728659 0.16154240546852777 0.19476022344965652 0.14808084608298147 1.8546256665782196e-05 1.265909447230045e-06 1.1156359739349703e-06 9.690599517247742e-07 8.316825207644332e-07 7.059525540886811e-07 5.925358279108651e-07 4.911185742624989e-07 4.0084335875259543e-07 3.205549378292483e-07 2.4896663558962986e-07 1.8482232174621814e-07 1.271023088349824e-07 7.542094720621643e-08 3.1064171668243997e-08 4.1650277961617827e-13 3.179614651740547e-19 3.2030300303895743e-19 3.4850451697914725e-19 4.360807553025867e-19 1.3535879103171238e-18 2.837304379463382e-17 8.045527801789778e-16 2.0139511689869766e-14 4.3822465551264536e-13 8.294562784135917e-12 1.363098042016399e-10 1.9355708893605776e-09 2.4025713838096866e-08 2.559458290650327e-07 2.307644430933222e-06 1.7462320832125874e-05 0.00011128006824118998 0.000594609975163558 0.002600612417440333 0.009351322407045571 0.02715417335624498 0.06273658154201076 0.11348121596675975 0.15042576739960206 0.14088040899430537 0.13434989837372655 0.12440847900084505 0.11321852141195685 0.10174283174630148 0.09043157311131182 0.079543791106121 0.0692141579449682 0.05949907914905979 0.05040015944604441 0.041877624946661224 0.03385926620882373 0.026251205306616572 0.018955454818255633 0.011915835046437829 0.005276706534833365 3.0562718039256936e-08 5.89400148288837e-20 5.961210196439109e-20 6.548035733324311e-20 8.164039333821907e-20 1.9562191609226022e-19 3.354549651626863e-18 9.993525583432144e-17 2.7007507387518136e-15 6.395289950793173e-14 1.3252784304748596e-12 2.396331969532768e-11 3.758987107584793e-10 5.170820620729459e-09 6.119367031458659e-08 6.138462185109729e-07 5.171076908095627e-06 3.6677749004798364e-05 0.0002179798303066799 0.0010590469144270897 0.004220056160623823 0.013539564118277723 0.034546886604537266 0.06843747198172073 0.10324203558953794 0.11130702782935152 0.11328543442962574 0.10616671560253417 0.09697490764685107 0.08710997850685223 0.07725913075218994 0.06777685390540271 0.05884678297750224 0.05054909794108996 0.04289326399490895 0.03583307952449809 0.029271739994045712 0.023065155585592464 0.017034371677762377 0.011017342675707134 0.005042921960824746 2.96403023149382e-08 9.538485226654357e-21 9.687061543425382e-21 1.0746456827223188e-20 1.3468091468565317e-20 2.6834779513501603e-20 3.519026507890611e-19 1.086426641265906e-17 3.1684829532990353e-16 8.168582019744642e-15 1.8542948600038694e-13 3.6915182709568226e-12 6.400861757937169e-11 9.76270260278163e-10 1.2839159951002692e-08 1.4329378757046667e-07 1.3432369284156918e-06 1.0592936098834916e-05 6.988381192705046e-05 0.00037601660422470696 0.001652652974312303 0.005826450160067236 0.016240721605160262 0.03519143712398999 0.057808315446971195 0.07140783977119912 0.07600634454806036 0.07506027178273372 0.06998364490266451 0.06350469469561311 0.05661078328180971 0.049845161188119935 0.04348464856975333 0.037659021563524804 0.03239806960409776 0.027651526079412278 0.023291129836706465 0.019106323231085135 0.014813764526136669 0.010115880933409356 0.004903410077107506 2.8979832485273624e-08 1.3064692713268251e-21 1.332495995384713e-21 1.4933126423569536e-21 1.8907530130486986e-21 3.3498872206839338e-21 3.204683343204542e-20 1.0032346239664844e-18 3.155151195139578e-17 8.861057057007631e-16 2.205278473821184e-14 4.837615668516607e-13 9.280267790650838e-12 1.570768335699813e-10 2.2971180515409653e-09 2.8535850703002363e-08 2.976558717270885e-07 2.608170829247995e-06 1.9071198680627855e-05 0.00011333752897838906 0.0005472765956496826 0.002107175115640455 0.006375670187709822 0.01490355088572488 0.026522334904872092 0.03597884971075477 0.04143183890454088 0.042713618208534136 0.04124972747737604 0.038193972101530985 0.03451172141981482 0.030736087456142376 0.027170814794915274 0.023970633108765373 0.021190837183812983 0.01880489181648879 0.01669871567530769 0.014645511016217645 0.01