# vtk DataFile Version 3.0
vtk output
ASCII
DATASET RECTILINEAR_GRID
DIMENSIONS 41 41 1
X_COORDINATES 41 double
0 1 2 3 4 5 6 7 8 9 10 11 12 13 14 15 16 17 18 19 20 21 22 23 24 25 26 27 28 29 30 31 32 33 34 35 36 37 38 39 40 
Y_COORDINATES 41 double
0 1 2 3 4 5 6 7 8 9 10 11 12 13 14 15 16 17 18 19 20 21 22 23 24 25 26 27 28 29 30 31 32 33 34 35 36 37 38 39 40 
Z_COORDINATES 1 double
0
POINT_DATA 1681
FIELD FieldData 1
Concentracao 1 1681 double
1.0 1.0 1.0 1.0 1.0 1.0 1.0 1.0 0.9999999999999999 0.9999999999999999 0.9999999999999999 0.9999999999999998 0.9999999999999997 0.9999999999999996 0.9999999999999998 0.9999999999999998 0.9999999999999999 0.9999999999999999 0.9999999999999999 0.9999999999999999 1.0 1.0 1.0 1.0 1.0 0.9999999999999998 0.9999999999999998 0.9999999999999999 0.9999999999999999 0.9999999999999998 0.9999999999999999 0.9999999999999998 0.9999999999999998 0.9999999999999998 0.9999999999999999 0.9999999999999997 0.9999999999999996 0.9999999999999989 0.9999999999680079 0.9999920302944005 0.00013603218204127535 1.0 1.0 1.0 0.9999999999999999 0.9999999999999996 1.0 1.0000000000000002 1.0000000000000002 1.0000000000000002 1.0 1.0000000000000002 0.9999999999999999 0.9999999999999998 1.0 0.9999999999999994 0.9999999999999991 0.9999999999999991 0.9999999999999992 0.9999999999999991 0.9999999999999991 0.9999999999999993 0.9999999999999991 0.9999999999999991 0.9999999999999988 0.9999999999999991 0.9999999999999988 0.9999999999999989 0.9999999999999989 0.9999999999999989 0.9999999999999991 0.9999999999999991 0.9999999999999991 0.9999999999999989 0.9999999999999989 0.9999999999999989 0.9999999999999989 0.999999999999999 0.9999999999999983 0.9999999999682511 0.9999920538823365 0.00013603218209754916 1.0 1.0 1.0 1.0000000000000002 0.9999999999999998 1.0 1.0 0.9999999999999997 0.9999999999999998 0.9999999999999996 0.9999999999999993 0.999999999999999 0.9999999999999991 0.9999999999999993 0.9999999999999993 0.9999999999999991 0.9999999999999991 0.9999999999999988 0.9999999999999987 0.9999999999999984 0.9999999999999982 0.9999999999999983 0.9999999999999982 0.9999999999999984 0.9999999999999984 0.9999999999999987 0.9999999999999987 0.9999999999999984 0.9999999999999984 0.999999999999998 0.9999999999999982 0.9999999999999982 0.9999999999999981 0.9999999999999981 0.9999999999999979 0.999999999999998 0.9999999999999979 0.9999999999999976 0.9999999999687197 0.9999920918430221 0.00013603218250204482 1.0 0.9999999999999999 1.0 1.0 1.0 0.9999999999999998 0.9999999999999997 0.9999999999999998 0.9999999999999996 0.9999999999999996 0.9999999999999992 0.999999999999999 0.999999999999999 0.9999999999999992 0.999999999999999 0.9999999999999989 0.9999999999999986 0.999999999999998 0.9999999999999973 0.9999999999999971 0.9999999999999967 0.9999999999999959 0.9999999999999953 0.999999999999995 0.9999999999999943 0.9999999999999938 0.9999999999999931 0.9999999999999925 0.9999999999999919 0.9999999999999915 0.999999999999991 0.9999999999999906 0.9999999999999903 0.9999999999999907 0.9999999999999917 0.9999999999999932 0.9999999999999948 0.9999999999999959 0.9999999999691158 0.9999921045000161 0.00013603218277334855 0.9999999999909798 0.9999999999902796 0.9999999999885374 0.9999999999855962 0.9999999999812631 0.9999999999754131 0.9999999999679716 0.9999999999589064 0.9999999999482189 0.9999999999359304 0.999999999922072 0.9999999999066764 0.9999999998897736 0.9999999998713869 0.9999999998515363 0.9999999998302364 0.9999999998074979 0.9999999997833288 0.999999999757737 0.9999999997307308 0.9999999997023223 0.999999999672532 0.9999999996413954 0.9999999996089787 0.9999999995754029 0.9999999995408876 0.9999999995058306 0.9999999994709443 0.999999999437496 0.9999999994077095 0.9999999993853613 0.9999999993768998 0.9999999993913453 0.9999999994452102 0.9999999995474526 0.9999999996998337 0.9999999998252598 0.9999999999218382 0.9999999999425111 0.9999920170170177 0.00013603218272441702 0.9999956736424438 0.999995522463248 0.9999951781182876 0.9999946489301468 0.9999939591163818 0.9999931379677088 0.9999922157216293 0.9999912184844322 0.9999901670932146 0.9999890774020626 0.9999879609725493 0.9999868260842493 0.9999856784530621 0.9999845220210726 0.9999833594112054 0.9999821923962317 0.9999810221564595 0.9999798494834267 0.9999786750107709 0.9999774992633327 0.9999763228742581 0.9999751466530054 0.9999739719480248 0.9999728010974653 0.9999716381020767 0.9999704899218534 0.9999693688198225 0.9999682961941797 0.9999673094306877 0.9999664732519224 0.9999659021634708 0.999965779889536 0.9999665067300725 0.9999682404620233 0.9999742722524243 0.9999808358778028 0.9999920723478369 0.9999972024472604 0.9999993160056861 0.9999916469903352 0.0001360321820791872 0.03641256483853908 0.03625178764832158 0.035832386476832505 0.03520919171678178 0.034446577761429016 0.033597592479366986 0.03269942645257398 0.03177501672010484 0.030836282763840914 0.029891927419424407 0.02894502723014117 0.0279981472893862 0.02705310493959479 0.02610945283776015 0.02516831663841863 0.024229521021193023 0.023293276633422448 0.022358963171596438 0.021426382134770824 0.020495337273485174 0.019566046771467664 0.018637537889337107 0.01770927376820772 0.0167811484393823 0.015852309485409093 0.0149211968817568 0.013987129038592587 0.013048017085273558 0.012101589785044421 0.011142837227839214 0.01016867500170629 0.009159321737853216 0.008149871860022778 0.006849487864543075 0.007006144450578272 0.999960927796393 0.9999807633392432 0.999993868858563 0.9999984430884785 0.9999909202817421 0.00013603218049356485 0.0006665364781226926 0.000660929379352408 0.0006463697616995428 0.0006248687677686557 0.0005988007677673043 0.0005701743243957258 0.0005405170789211528 0.0005108925109422979 0.0004821460700654611 0.00045505271267498967 0.0004302855927695248 0.0004082903425713454 0.000389113512808943 0.0003723724398649771 0.00035744675856684506 0.00034369634185550863 0.00033062467064323616 0.0003179570060462154 0.00030559370896820283 0.00029352695000776186 0.00028178451836835685 0.00027040448901594 0.0002594163939199747 0.00024885706705157084 0.00023874221231701291 0.0002290834611209864 0.0002198928667485625 0.00021117059004722028 0.00020290789008387805 0.00019508398450786632 0.00018767524215417057 0.00018063657956000274 0.00017390851330273323 0.00016722278981143172 0.00030976116373027275 0.9999602697523525 0.9999809701237045 0.9999929502831678 0.9999982076484992 0.9999897972290251 0.0001360321773777512 8.146730656746287e-06 8.34608640681992e-06 1.6454108410551053e-05 0.00010246796600963659 0.0006598422915070375 0.0032186256286945497 0.012086563584886845 0.03615141755789485 0.0885005371844739 0.1812374449455662 0.31649369142772626 0.48016213732998175 0.6453458044639869 0.7849080146524857 0.8838970318894734 0.9430246816480418 0.9729555554746039 0.9860290466715019 0.9912319338092164 0.9934033359678505 0.9945723444649912 0.9954189936872307 0.9961308091541117 0.9967544146833136 0.997303975939828 0.9977870540443787 0.9982095137231629 0.9985763918982051 0.9988920871063209 0.9991604173158224 0.9993848164994236 0.9995683887629828 0.999713797423928 0.9998240953576282 0.999899577460348 0.9999520847753434 0.999942592294562 0.9997525906861978 0.9982836504302267 0.9719296574871835 0.0001359939256604368 1.730602012892543e-06 2.0610726070304317e-06 1.0147383025038986e-05 9.352099203930818e-05 0.0006345764032420749 0.0031305894737893177 0.01182752588288841 0.035553586407148265 0.08743583571528024 0.17980729878998616 0.3151827470629417 0.4797263987774095 0.6464662614168648 0.7878075406668977 0.8882594821852019 0.9482044217418933 0.9783077517305087 0.9911109856903755 0.9958259183185834 0.9974443713493275 0.9980701229999359 0.9984099645728741 0.998657512383357 0.9988588698311629 0.9990261797541706 0.9991648335294482 0.9992786236312377 0.9993705138807649 0.9994427319132468 0.9994967388556354 0.9995331098894716 0.9995512852566902 0.9995488509079392 0.9995195310098118 0.9994538533027065 0.9992660253275698 0.9987164599541491 0.9966182424011287 0.9854345221553409 0.9074230165497016 0.0001358618538472862 5.296315899557387e-07 8.571192902923024e-07 8.27207119654673e-06 8.500851246378646e-05 0.0005880415309113533 0.002933584096119375 0.011193632896853857 0.03396360601391466 0.08426004766532776 0.17469215981467937 0.30847803694382536 0.47256979788568 0.6402837689481159 0.7836077262585377 0.8862211272551638 0.9478395327826497 0.9788993710298568 0.9920702276101792 0.9968109660908142 0.9983087839991792 0.9987723119047193 0.998949744366767 0.9990463240035404 0.9991093634730797 0.9991493118272149 0.9991691486406922 0.999169895036123 0.9991513064406071 0.9991116515237806 0.9990471164109295 0.9989506103387937 0.9988093987551017 0.9985993097121191 0.9982735628914061 0.9977107394668512 0.9965495912454748 0.9937093778811005 0.9855426311397044 0.9566746894400094 0.8240485767905886 0.00013558957961607777 1.913451317921928e-07 4.803456115611123e-07 6.942508533724971e-06 7.473369542017785e-05 0.0005260999977459153 0.0026639295073887926 0.010309198978901073 0.03170448188739986 0.07966127199729338 0.16711496546848462 0.2982657185146209 0.46123552751270647 0.6298887935248004 0.7757393014187711 0.8813427177838838 0.9454259813095179 0.978024484282651 0.9919272547703738 0.9969064432953231 0.998413450481838 0.9988039263357171 0.9988863588245429 0.998884234598179 0.9988478325957122 0.9987860269999429 0.9986987396956866 0.9985829110364163 0.9984328004852919 0.9982388985167916 0.9979857296298071 0.997647774912381 0.9971810229695601 0.9965052150553853 0.9954589158582585 0.9936755361719171 0.9902714637916987 0.9829557593176226 0.9650340492888665 0.9137456082056387 0.7386671913135655 0.0001351406639576202 7.608027822149514e-08 3.14303527107974e-07 5.690211516038926e-06 6.321344490664982e-05 0.000454175529745844 0.002344232090191621 0.009240850016132012 0.028925839561370646 0.07390177877305787 0.15744996670284211 0.2849922576930331 0.4461982634795032 0.6157642915000783 0.7646945229065861 0.8741417099270741 0.9415024439607947 0.9762239776652615 0.9911960380879817 0.996577900754767 0.998164912202574 0.9985099778249216 0.998504848543544 0.998399164870986 0.998247928593043 0.9980579875365138 0.9978247056471966 0.9975384381732724 0.997184070147945 0.9967382375992387 0.9961643092040701 0.9954028106526799 0.9943530407238934 0.9928344275942511 0.9904994068865494 0.9866333557696393 0.9796713238426256 0.9659396594180881 0.9359840251197515 0.8627876040994841 0.6590224466266709 0.0001344829606825913 3.217226573289465e-08 2.1748797200889948e-07 4.484179474806744e-06 5.129829438203835e-05 0.0003776876933207535 0.001996095460614678 0.008051297043843119 0.025763116179489013 0.06720549053818885 0.1459784963579481 0.2689132894083202 0.4276097456591942 0.5979343823036385 0.7504362112034456 0.8645863475579367 0.9360914000822936 0.9735731123491931 0.989981860541695 0.9959354210035428 0.9976612410639165 0.9979685629418437 0.9978604291853947 0.9976225550156319 0.9973167901524611 0.9969471615567488 0.9965023493332871 0.9959627864197941 0.9952990117755972 0.9944664727396042 0.9933962230981996 0.9919781120519405 0.9900290899347512 0.9872307484999486 0.9830000017199538 0.976213674268136 0.9645906118404434 0.9432147834279498 0.9007147902489516 0.8085489157806429 0.5882536775535306 0.00013358807119830932 1.4184798820968583e-08 1.504255635205817e-07 3.3739587649926965e-06 3.9824753780260815e-05 0.00030182698662899226 0.0016410545185742227 0.006804395238665678 0.022358646831039115 0.05980997707053635 0.13299051418830657 0.25027300044546436 0.40556336581638697 0.5763076343170745 0.7327481878662739 0.8524515592781483 0.92903195948214 0.9699936453473751 0.9882666028308184 0.9949894041277975 0.9969185720009663 0.9971891810675 0.9969502951340818 0.9965365423035625 0.9960195894982848 0.9953998445909743 0.9946568249102855 0.99375729530385 0.9926521196171969 0.991267995124422 0.9894930031793939 0.9871514306038632 0.9839580689757664 0.9794327615629047 0.9727351208164496 0.9623318232855685 0.9453008798566084 0.9157915271777616 0.8614101253965725 0.754197673265169 0.5264013635467515 0.00013242922604100245 6.437048666481346e-09 1.0090528982061568e-07 2.4113763845497652e-06 2.9471888277888717e-05 0.0002310219380062238 0.0012985709367681992 0.005562147669703941 0.018858614502346518 0.05197169534677363 0.11881948437429919 0.22935800914237225 0.38016017985690637 0.5507548083298326 0.7113332981316925 0.8374000580326196 0.9200562215809004 0.9653225607640975 0.9859710242340163 0.9937076666871913 0.9959219880089846 0.9961571046654037 0.9957515149710265 0.9951056811843555 0.9943055105756473 0.9933473231116312 0.9921990553379373 0.9908101041641755 0.9891066361175069 0.9869798614259712 0.9842662588072407 0.9807140038666825 0.9759245239526052 0.969248423379225 0.9595939189355438 0.9450624522421508 0.9222307138008973 0.884670647630872 0.8197493896548661 0.7013665933877801 0.4724560969826422 0.00013097995010117442 2.978987198027546e-09 6.451860721900005e-08 1.6285584839423659e-06 2.0698526299506506e-05 0.00016865821881544235 0.0009851829924475866 0.004381988044885535 0.015408972688568391 0.04396627355898711 0.10384483741138847 0.20653127307473343 0.3515758559863423 0.5211531079007339 0.6858358069559891 0.8190050899222793 0.9088063720428237 0.9593265659973631 0.9829701552360814 0.9920300554593089 0.9946392488189462 0.9948455885519603 0.9942312107131672 0.9932848505336379 0.9921132149964073 0.9907088620960267 0.9890261362164933 0.9869938829779207 0.9845094959240805 0.9814238217886052 0.977516336247799 0.9724540210196096 0.9657232150566235 0.9565125135392568 0.9435073931664891 0.9245184573910001 0.8957874615667673 0.8506441701468944 0.7768094089123134 0.6507218940249878 0.42510105354676003 0.00012921173254126886 1.3961340421370792e-09 3.886511258043757e-08 1.0333969918667878e-06 1.3721524222687928e-05 0.00011683151565470736 0.0007130654767270699 0.0033118355601572404 0.012145746411693407 0.03607736184033991 0.08849767365019048 0.1822452588874439 0.32006761140464485 0.4874287784377085 0.6558805860033465 0.7967614821225308 0.8948321646542905 0.9516986306615289 0.9790912648419912 0.9898698586293504 0.9930236910509823 0.9932188109098066 0.9923486950503487 0.9910199077888042 0.9893696013012481 0.9873881622079743 0.9850150691264404 0.9821565400949293 0.978678696926022 0.9743898047793161 0.9690106961735976 0.9621284748411743 0.9531214700788542 0.941035937053973 0.9243787266778414 0.9007583657472217 0.8662491935528955 0.8142257014016522 0.7331642823737179 0.6023377630146021 0.3830633411352048 0.00012709188036273854 6.588407905569183e-10 2.184737422201212e-08 6.119549218917922e-07 8.530083275707122e-06 7.630392834775786e-05 0.0004894085680690573 0.0023876824144020955 0.00918760053394572 0.02858180315041966 0.0732397870724777 0.15704185022806666 0.28602524882435876 0.44960074218841733 0.6210902356237256 0.7700902894045699 0.8775845422874301 0.9420468673845418 0.9741074695454415 0.9871105653030192 0.9910129212541747 0.991231111810522 0.9900541517650437 0.9882450015695879 0.9859847976420644 0.9832651481502597 0.9800108924442826 0.9761050896030298 0.9713827121948146 0.9656103088840503 0.9584535437853244 0.9494271219456992 0.937816662222191 0.9225553741265743 0.9020254055664084 0.8737270962588654 0.8337201494301162 0.7756515250888976 0.6890179279576807 0.5559673174457709 0.3452257651947144 0.00012458078223639402 3.115298200376238e-10 1.1358224518015478e-08 3.355853445956732e-07 4.934264437473651e-06 4.662924937633873e-05 0.0003161897505141783 0.0016307184497801365 0.006627170253908504 0.02173543990859714 0.05856352896939675 0.13157460157844184 0.2500023337087448 0.4078145167354418 0.5811225403324624 0.7383423640105715 0.8563982354767044 0.9298784848584339 0.9677254526370208 0.9835996529694055 0.9885258334236207 0.9888248209475367 0.9872855309884389 0.9848770864487904 0.9818432978731547 0.9781828762271678 0.973808226817889 0.9685814598789894 0.9623099962967943 0.9547245921458488 0.945444865504119 0.9339271133040449 0.9193872776109041 0.9006824910792585 0.8761294470079026 0.8432120596022455 0.7981102713586365 0.734915888561078 0.6443011002980482 0.5111981649059767 0.3106450867040567 0.00012162760414906048 1.4694410334868916e-10 5.412573210097869e-09 1.6892237891456893e-07 2.632076645528059e-06 2.6421512095783716e-05 0.00019058828424806695 0.0010460999706544047 0.004521971867678936 0.015750364186591873 0.04495128052076076 0.10658528074518415 0.2127292995381881 0.36241005257503356 0.535715652308854 0.7008141898081814 0.8304789092929066 0.9145742747121235 0.9595688232542783 0.9791406988100949 0.9854592921392661 0.9859275638617621 0.9839642215320341 0.9808082189581939 0.9767908691333764 0.9719270862093496 0.966122336595867 0.9592246737264509 0.9510232284770525 0.9412256605205003 0.9294222227243267 0.9150328559948925 0.8972337354150508 0.8748492283848129 0.8461913559188425 0.8088141710576326 0.7591308141649379 0.6918041140608504 0.598758046875353 0.46753777762539545 0.27852973947826226 0.00011816536273492737 6.885124458071546e-11 2.343316039695517e-09 7.729285586800313e-08 1.2814980905073416e-06 1.3736037899433516e-05 0.00010605442355999499 0.0006238514786065331 0.002890276134822691 0.010777240112258087 0.03284958038499912 0.08288214478471226 0.17515131139524182 0.31398549545239796 0.4847538734236583 0.6567594217209862 0.7988702801530773 0.8953485039477099 0.9491515208218707 0.9734822572968892 0.9816852021709368 0.9824508211540257 0.9799904115233425 0.9758946176195871 0.9706142208866406 0.9641939520603294 0.9565435950070318 0.9475113908054156 0.936887497315669 0.924380452321954 0.9095779624453187 0.8918950636579388 0.8705049646287485 0.8442453531104184 0.8114844736229303 0.7699227744670597 0.7162971678004098 0.6459260318114756 0.5520041155144482 0.4244756274268839 0.24823267433249246 0.00011410242582765985 3.1915188117711393e-11 9.139479246860591e-10 3.1816001113440656e-08 5.630614028998922e-07 6.474089847870462e-06 5.3814829947988546e-05 0.0003416232125389094 0.0017097968125976853 0.006884475996762046 0.022616861182688176 0.0612935995729318 0.13843330488094543 0.2634771310781539 0.42837633148962334 0.605436833320252 0.7604251139786872 0.871193105312891 0.9358342692304635 0.9663005493971947 0.9770486023505396 0.9782913518662049 0.9752400545166139 0.9699424880226083 0.9630102524069659 0.9545378978483002 0.9444601701680047 0.9326550213319793 0.9189515678573232 0.903100640675081 0.8847300924601286 0.8632906038198034 0.8379940890519734 0.8077369808796403 0.7709970158120942 0.7256835909736431 0.6689242763170303 0.5967402145173835 0.5035654858934566 0.3815090181454337 0.21922300781352144 0.00010930930687146355 1.4573732586265006e-11 3.1891501459711294e-10 1.16586018968032e-08 2.2061703856250714e-07 2.730377181617023e-06 2.4557364848545665e-05 0.00016933376965253495 0.0009227587622845484 0.0040485323001725445 0.014478217674530761 0.042592236378277075 0.10392685671298854 0.2122612718720323 0.36712037895991045 0.5462025012536732 0.713779828753664 0.840779405916144 0.9187473587971208 0.9571657959218886 0.9713646216892328 0.9733380078410319 0.9695658845172065 0.9626910957566233 0.9535382750468296 0.9422814907709548 0.928920929527459 0.9134251870484977 0.8957348870938101 0.8757175541544744 0.8531029430358638 0.8274261534813779 0.7979755695982532 0.7637409750744141 0.7233472044011818 0.6749537873403597 0.6161154258824856 0.5435654249559512 0.45290597400664395 0.33815520256945886 0.19106694944296226 0.00010359390601311834 6.5267535477542505e-12 9.921529126758302e-11 3.766072763619806e-09 7.617854651920909e-08 1.0165017557088902e-06 9.927218124943163e-06 7.475608705152761e-05 0.0004467604579981267 0.00215491529871703 0.00847646364857271 0.02738330550755087 0.07308170637034628 0.16221000222936433 0.3021593839731957 0.47869450055494733 0.6573424427495811 0.8023207541449809 0.8966511531247844 0.9454734451027647 0.9644085164479796 0.9674874817902466 0.9628101473722099 0.9537952084782487 0.9415439488802 0.9263542856507181 0.9083769085480611 0.8877959592917706 0.8648154766292315 0.8395477679773479 0.811912122283593 0.7815689323217929 0.7478954385929679 0.7099780861516853 0.6665931810395145 0.616161510201721 0.5566654436283779 0.485519873703076 0.3993896747218385 0.2939274202306092 0.16339314202580515 9.665010342136989e-05 2.852993981176768e-12 2.7608702143110074e-11 1.0635897389685772e-09 2.2933525117979513e-08 3.2973203346737054e-07 3.5012924623108355e-06 2.889347209786478e-05 0.00019044743790222758 0.001017937540084869 0.004448847144943643 0.015972998598234263 0.0472640803454075 0.1156824128837887 0.23558043084227925 0.40319389201455863 0.5894047462744028 0.7533921262868721 0.8676947016917519 0.9302996727507239 0.9558825124453237 0.9606720938173735 0.9548415045256896 0.9428173566960548 0.926036054940992 0.9049914964593003 0.8801472333721793 0.8522166727877715 0.8219630585253483 0.789986806122184 0.7564974254057041 0.72126080740705 0.6836832808882842 0.6428823116713734 0.597741048764719 0.5469023830184631 0.48873661593634254 0.42127054781791445 0.3420885437848346 0.24819330746700485 0.13580430989215186 8.793940095012186e-05 1.2108312831324695e-12 7.501596793560959e-12 2.843467903937103e-10 6.487626906586747e-09 9.973987439718901e-08 1.1420699204351649e-06 1.0240900042508525e-05 7.384680936296995e-05 0.0004343643385385423 0.002099145893727859 0.008363911575953457 0.027521354056835746 0.07532134227510388 0.17065672356955439 0.32125142632135245 0.5085195114040485 0.6907708958419112 0.829002361796363 0.9101010841785968 0.9453173527984479 0.952902235619168 0.9456543973276081 0.9292696296835449 0.9055128086203219 0.8751067292209201 0.8393341094254512 0.7999823685234919 0.7592496758601669 0.718613945191987 0.6785435178008266 0.638726192440637 0.5983352213510224 0.556351949062313 0.5116437505262736 0.462986847829111 0.40905339899408 0.3483722646228531 0.27927253333210816 0.19981147795789278 0.10768116531359613 7.64597729286997e-05 4.959486874555683e-13 2.0338936816123635e-12 7.295257467686514e-11 1.753768393339081e-09 2.8737867530573133e-08 3.537164094782938e-07 3.43567007870335e-06 2.7018313411595265e-05 0.00017434515434572228 0.0009288832677573031 0.004096194870976942 0.014957277417193686 0.04550883904460338 0.1145793939034289 0.2387843123398824 0.4150557000280034 0.6105328850071883 0.7760642593608932 0.8821006914272731 0.9317996073891733 0.9443048448911318 0.9356119584424977 0.9128688111571075 0.8777620510239054 0.8313301187204788 0.7759809215976865 0.7178077619240558 0.6614271012029173 0.6098449486339497 0.5635434332919543 0.520906804964285 0.48040115863621774 0.44055596303307787 0.40004997695841593 0.3576697898138925 0.3122767928147047 0.26276833041232217 0.20802430667340177 0.14687419472247615 0.07803509982349081 6.057950400793908e-05 1.9471028687048488e-13 5.538631113398272e-13 1.7844944579560588e-11 4.4996202918929404e-10 7.83680082725614e-09 1.0341198173936483e-07 1.085177387564239e-06 9.282890754976043e-06 6.554757345831507e-05 0.0003840556560980978 0.0018700536609098577 0.007562809302059414 0.02554480867705173 0.07146212455968613 0.16523379700284987 0.31717129229162816 0.5106880632714774 0.700087849844089 0.8399793779218052 0.9132278675141311 0.9350201461575696 0.92598193149938 0.8945788468464225 0.8406417440184312 0.7636349280139695 0.6740497581191629 0.5796900909258571 0.5001895801307799 0.44061450002329877 0.39296099232701454 0.3533515150883495 0.31875343926331867 0.2870626831683572 0.25668755429260515 0.2264013552152396 0.19522007156250376 0.16231996547864389 0.12698910549217962 0.08857832620364553 0.04646996865797721 3.906099985254944e-05 7.268811303225803e-14 1.5219923976119162e-13 4.13200693893393e-12 1.0870252650617447e-10 2.007382856193405e-09 2.8335074454004745e-08 3.2056187381781716e-07 2.9766837428150756e-06 2.2952985131293154e-05 0.0001476013345821664 0.0007920708222125349 0.0035415395837231226 0.013260231548565805 0.04118948386644427 0.10574647028012556 0.22487591143006005 0.3990799449869674 0.5971424033839398 0.7691268183100142 0.8781315197575589 0.9224922888758116 0.9193992052371547 0.8797695798094006 0.7962937591846551 0.6568082238661317 0.4672944028337927 0.32742807501117377 0.25265280027614684 0.2051508049029808 0.17291807829830683 0.1490950122984004 0.1303309756666423 0.1145595744118908 0.1004914996806286 0.08725617825051783 0.0742425340875243 0.06100351420641658 0.04720203766884491 0.03257455640692071 0.016906971108142998 1.51582639904057e-05 2.5559233704763132e-14 4.2114816896480176e-14 8.986138531496309e-13 2.449591857254335e-11 4.785997522581497e-10 7.2135919253783875e-09 8.783186913959159e-08 8.839300313380498e-07 7.431457588765413e-06 5.236930217018773e-05 0.00030924289918253425 0.0015265309808370363 0.006327461078284302 0.021802993183246664 0.062144781033847234 0.14661965127657606 0.28794019834506757 0.4741094057200234 0.6645638782878831 0.8116763105433914 0.8921821352110099 0.9103559192449183 0.8773177248247139 0.7780379505870421 0.510862978195452 0.0005501761962165195 0.0003240056433118975 0.000302182628628353 0.00026390115517235086 0.0002398380030590594 0.00022131491423148426 0.00020647662386429956 0.00019307238048117158 0.00017952764982663558 0.00016454677877803366 0.0001470368210589576 0.0001261295809368288 0.00010118135657464646 7.182374396116697e-05 3.800974499255296e-05 2.444701723077091e-08 8.369177141030528e-15 1.15876922963106e-14 1.8201602101139003e-13 5.091873082922682e-12 1.0505356584189949e-10 1.6882555827432666e-09 2.209441436579994e-08 2.4069650425988273e-07 2.203887790108085e-06 1.700038949410147e-05 0.00011034937590926415 0.0006007392304403111 0.002753616188148569 0.010515311053497622 0.03325710030531712 0.08707918790973183 0.18959437330476345 0.34514367089431425 0.5313767305102716 0.7047983819105569 0.8267754550437961 0.882602632184214 0.874230725281918 0.7890595114226481 0.5484925464159481 0.00031077777679901447 2.8163685005017076e-05 2.7358716760023168e-05 2.6495127074673185e-05 2.5591962469374313e-05 2.4660661495803762e-05 2.3704264712261505e-05 2.2718556927201234e-05 2.169244732197354e-05 2.0605479540254734e-05 1.942227917779141e-05 1.8080275798441224e-05 1.6458480776686956e-05 1.4278742829966639e-05 1.0655302297569727e-05 4.0030165970596945e-10 2.516535219944652e-15 3.0975256820201186e-15 3.40351301094851e-14 9.630708277191058e-13 2.0943558657734567e-11 3.5846111804500416e-10 5.037780696565527e-09 5.9360704178436e-08 5.915223639527179e-07 4.99140245351714e-06 3.559049056551541e-05 0.00021353230737641553 0.0010815501086391616 0.004573621566113185 0.01603990006539108 0.04659497800308646 0.11252725333837044 0.22695003506358943 0.3857678368571823 0.561056815124915 0.713616671367247 0.8130071650479362 0.8480511530624699 0.806874147541271 0.6072445690356246 0.6059748075416578 0.6035748845771889 0.6005348017161803 0.5969743222193321 0.592913991553436 0.5883379054623897 0.583192255637568 0.5773779243628459 0.5707267712398538 0.5629506628571818 0.5535306164864879 0.54145380069362 0.5244633488699815 0.496234478208168 0.4290773770900742 1.0594685554632433e-05 6.827480129320326e-16 7.799721175050718e-16 5.820661029954035e-15 1.6295139516603314e-13 3.728167228444271e-12 6.790612825129321e-11 1.0242308272410427e-09 1.3048633386881995e-08 1.4146650421818643e-07 1.3055423392813155e-06 1.0223652418114865e-05 6.758444263016343e-05 0.0003781290500769412 0.00176988786364463 0.0068790968090441705 0.022159096220069383 0.059341586198763056 0.1326523403726271 0.24945580729823705 0.3998599401912091 0.5564248755783536 0.6870712361988889 0.7670390492522234 0.7836343333854386 0.7028323850018934 0.6608279430488135 0.6497160345623358 0.6414724433774707 0.6344580692704602 0.6276299342390264 0.6205605003749171 0.6129530487576236 0.6045528193733956 0.5950795256466949 0.5841702464570071 0.5712827639431436 0.5554650391119875 0.5346455651920133 0.5028648146101408 0.4330286096188283 1.0619770400177749e-05 1.6336614931286654e-16 1.7849465877018985e-16 9.009023790364347e-16 2.4131829051348653e-14 5.796416478967638e-13 1.1229728782791423e-11 1.8174196185982473e-10 2.5032520787530506e-09 2.9530107172270082e-08 2.9810409785026585e-07 2.5645043509496185e-06 1.8683470432798023e-05 0.000115482582274413 0.0005982768978174374 0.00257651534056687 0.009199510782345667 0.027304919286352116 0.06762369319264581 0.1407207410164417 0.24896599602004463 0.38069925372788094 0.512669530496883 0.6202639953338781 0.6828063529666107 0.6841070754182383 0.6717696146925711 0.661344501191614 0.652656957469618 0.6442677973548321 0.6358010264087228 0.6270047603648063 0.6177344065548852 0.6078765908952575 0.5973001884286514 0.5857804422144627 0.5728564536677405 0.5575329285924705 0.5375404079650016 0.5066571771438443 0.437783831611178 1.0644906921328987e-05 3.343257891081508e-17 3.5627682188856635e-17 1.2436402334940416e-16 3.0384096612173757e-15 7.639730263548162e-14 1.5739054574660083e-12 2.7334966690618882e-11 4.0718298559087046e-10 5.229236508901239e-09 5.7784010011874713e-08 5.464665408567874e-07 4.390905115498933e-06 3.000455840092214e-05 0.00017213557638903583 0.0008216215609050348 0.003251768222177863 0.01069361510171024 0.029323510912683315 0.06747756069523436 0.1317310764277064 0.22142606086480626 0.32606516473597147 0.4281555919821578 0.5095983789403127 0.5553072091436171 0.5776039540223501 0.5858799632855344 0.5871367703516293 0.5841684125591766 0.5789067236963878 0.572415162667979 0.5654346182140676 0.5585404156906778 0.5521766449571517 0.5465523011203332 0.5413753750966389 0.535362109646387 0.5253423586449801 0.5037384468553208 0.4422619332358834 1.066840643352117e-05 5.601534056005722e-18 5.893414614500433e-18 1.4910637960681562e-17 3.121157083645571e-16 8.179379627402441e-15 1.7918318755382954e-13 3.3410499007446032e-12 5.3863417702502946e-11 7.5373565015292e-10 9.12722778000837e-09 9.500989145578229e-08 8.430834337758605e-07 6.377277377509104e-06 4.056331711558519e-05 0.00021478946698202353 0.0009428596924321405 0.0034361595165264204 0.01042965800384297 0.026519922123610384 0.05706547274203559 0.1053399819205451 0.16945436508553788 0.24155167639794256 0.31001531427291296 0.3640597892937915 0.4011570316591046 0.4242403785842687 0.43672420871896117 