# vtk DataFile Version 3.0
vtk output
ASCII
DATASET RECTILINEAR_GRID
DIMENSIONS 41 41 1
X_COORDINATES 41 double
0 1 2 3 4 5 6 7 8 9 10 11 12 13 14 15 16 17 18 19 20 21 22 23 24 25 26 27 28 29 30 31 32 33 34 35 36 37 38 39 40 
Y_COORDINATES 41 double
0 1 2 3 4 5 6 7 8 9 10 11 12 13 14 15 16 17 18 19 20 21 22 23 24 25 26 27 28 29 30 31 32 33 34 35 36 37 38 39 40 
Z_COORDINATES 1 double
0
POINT_DATA 1681
FIELD FieldData 1
Concentracao 1 1681 double
1.0 1.0000000000002593 0.9999999999996131 1.0000000000003044 0.99999999999982 1.000000000000091 0.999999999999958 1.0000000000000189 0.9999999999999921 1.000000000000003 0.9999999999999939 0.9999999999999217 0.9999999999990261 0.9999999999904686 0.9999999999232023 0.999999999476981 0.9999999969281904 0.9999999841943464 0.9999999278658201 0.9999997049986517 0.999998909497601 0.9999963295430279 0.9999886775615631 0.9999678025978034 0.9999151498502498 0.9997917394894537 0.9995216242527514 0.9989668481405899 0.9978919925196303 0.9959157363543983 0.9924432784655327 0.9865623005262307 0.9768597752692277 0.9610770070946277 0.9354476348639215 0.8934668737123032 0.8238917253032593 0.7083020670168251 0.5224694138980583 0.257901227946949 1.4093801783586646e-06 0.9999999999999637 1.0000000000001112 0.9999999999995257 1.000000000000279 0.9999999999998376 1.000000000000082 0.9999999999999625 1.0000000000000167 0.9999999999999928 1.0000000000000022 0.9999999999999907 0.999999999999875 0.9999999999984941 0.9999999999855932 0.9999999998862289 0.9999999992394026 0.9999999956087953 0.9999999777672449 0.99999990007908 0.999999597295745 0.9999985322312221 0.9999951265719329 0.9999851649318271 0.9999583601274556 0.9998916665573307 0.999737492537572 0.9994048002120943 0.9987315711243772 0.9974479486667324 0.9951297438220083 0.9911395178075888 0.9845420612251481 0.9739532380010795 0.9572286096218908 0.9307967021828462 0.8884455421255837 0.8190580877844907 0.7043645717710544 0.5198667902134628 0.2568157461888878 1.400992448746532e-06 1.00000000000004 1.0000000000000517 0.9999999999998326 1.0000000000002756 0.999999999999865 1.000000000000066 0.9999999999999697 1.000000000000013 0.9999999999999939 1.0000000000000002 0.9999999999999658 0.9999999999995439 0.9999999999950537 0.9999999999566699 0.9999999996834553 0.9999999980262937 0.9999999893051627 0.9999999489207629 0.9999997825054889 0.9999991665195866 0.99999710237531 0.9999907984781351 0.9999731483149433 0.9999275995368347 0.9998187512171759 0.9995768016966414 0.9990745720239326 0.998097316613989 0.996308214803811 0.9932150515697049 0.9881436031750478 0.9802097330674614 0.9682408478294452 0.950489814109754 0.9239206308948891 0.8824511445666716 0.8151449517776059 0.7025010494984281 0.5194623037506888 0.25679220877966075 1.3957376560186346e-06 0.9999999999999819 0.9999999999999815 0.9999999999999709 1.00000000000007 0.9999999999999161 1.000000000000032 0.9999999999999578 0.9999999999999518 0.9999999999998407 0.9999999999994669 0.9999999999973389 0.9999999999830311 0.9999999998885591 0.9999999993232791 0.9999999963102183 0.9999999819874613 0.9999999209131786 0.9999996857601782 0.9999988631407953 0.9999962337842928 0.9999885158214741 0.999967617533546 0.9999151943752471 0.9997929123674745 0.9995267703350085 0.9989846648001791 0.9979483807016037 0.9960851479631986 0.9929290665161484 0.9878870683210428 0.980286978745156 0.9694667343494342 0.9548426644921009 0.935668781085245 0.9098052375800384 0.8720628221629594 0.8089547789061542 0.7006747124787696 0.5190259531976422 0.2561386318733228 1.3898561688914008e-06 0.9999999996810522 0.9999999996383806 0.9999999995323675 0.9999999993205034 0.9999999989124853 0.9999999981235411 0.9999999965606978 0.9999999933622753 0.9999999865929124 0.9999999718346483 0.9999999388991365 0.9999998641649794 0.9999996928057093 0.9999992979773764 0.9999983886570174 0.9999963059516573 0.9999915865480006 0.9999810627863855 0.9999580916227722 0.9999092550380356 0.9998085791155183 0.9996081020977934 0.9992236502908701 0.998515335127893 0.9972638414900349 0.9951462940655503 0.9917194406084185 0.9864224453398905 0.9786178276896431 0.9676906484725509 0.9532296763255941 0.9353065085640826 0.9147275057554927 0.8933346169773227 0.8717400483597146 0.843327285694918 0.7940786558628605 0.6935067787924168 0.5142416821223119 0.2517485319448745 1.3770486301417356e-06 0.9999392646915076 0.999935037668576 0.9999260921697462 0.9999112370077149 0.9998888536706189 0.9998566622576646 0.999811513396035 0.9997490329519463 0.9996631757972323 0.9995456337955982 0.9993850143865469 0.9991657516104122 0.9988665854759997 0.9984585561775795 0.9979022509464315 0.9971442023558245 0.9961121209711361 0.9947087719036899 0.9928045029446446 0.9902281759769543 0.9867574715270466 0.9821089081562239 0.9759306759285684 0.9678010261523717 0.957235997186908 0.9437129580691483 0.92671830129068 0.9058244734012725 0.8808082791269746 0.8518235871111719 0.8196571113596357 0.7860261926669189 0.7544854640316327 0.7287075570580351 0.729212811279814 0.7362791179746175 0.7419954636486895 0.6683488869857808 0.49666735093007897 0.23993492403355454 1.3492333734866772e-06 0.008023377230568035 0.007947829265407472 0.007771730772189978 0.007517915610041933 0.007212955913429561 0.006878796241849791 0.006530951177496705 0.006179128875564732 0.005828819292404745 0.005483615867453059 0.005145257728144821 0.0048149575615078115 0.004493515940979985 0.004181206066816842 0.0038784844166587593 0.0035855544458910146 0.0033026644124972467 0.003029940470904328 0.0027675943377640927 0.002515854023722373 0.0022750269940268433 0.002045301571345873 0.001826970646716372 0.0016204197787509844 0.001425998644146217 0.0012440475499322565 0.0010750450029532964 0.0009193989933174748 0.0007775562207747934 0.0006498369775666779 0.0005367499626517169 0.00043792187874687363 0.0003560121473647933 0.00027776432887119287 0.00028186807780878855 0.7160724997454576 0.7062587710417377 0.6332627054402574 0.465136009163938 0.2176782294111845 1.297411744762031e-06 3.2567630775200174e-05 3.198459899550156e-05 3.0635373481792016e-05 2.873489697583613e-05 2.652285090956845e-05 2.419101315954231e-05 2.187066276959223e-05 1.963773074218164e-05 1.7532237654225656e-05 1.557286573098029e-05 1.3765478921444545e-05 1.2109498603388405e-05 1.0600468318857757e-05 9.231686590238153e-06 7.996084812313101e-06 6.886084694849514e-06 5.8935283068381225e-06 5.010503739983135e-06 4.229349988050321e-06 3.5424535511372423e-06 2.9423629380515725e-06 2.421905964057634e-06 1.974263732604375e-06 1.5935657556399176e-06 1.2752976238851328e-06 1.0180743347397e-06 8.261292756331555e-07 7.122181379009875e-07 6.997498241999686e-07 8.210552276243326e-07 1.109066209157526e-06 1.5817871205204246e-06 2.2252435047602063e-06 2.980906339379904e-06 8.885674290209321e-06 0.6874729627543286 0.670461358788906 0.5863962839160657 0.4143839370006536 0.18549575325819853 1.2144563215276077e-06 8.92214784626987e-08 8.65315260521283e-08 8.059861747674881e-08 7.266678617561353e-08 6.394199085401773e-08 5.527968618764618e-08 4.717687443678508e-08 3.986106001087337e-08 3.34007296037232e-08 2.778003544351991e-08 2.2942716160270758e-08 1.8817134003953528e-08 1.533743999405634e-08 1.2527284464080564e-08 1.1037403278917872e-08 1.5475664666188393e-08 5.28663236659728e-08 2.639291379340433e-07 1.3058096714735245e-06 5.936295678519664e-06 2.4557112234788817e-05 9.239803809507971e-05 0.0003163746023697364 0.0009861946390787527 0.0027988359599362897 0.007230061035945512 0.016992703454305178 0.03631811570835562 0.07056633050981766 0.12467399961672042 0.2005644356562387 0.2946733906008279 0.39751114145266125 0.49621576698221 0.5791819520969137 0.6340021669975248 0.6035048322736887 0.5056959249836271 0.34554879157901286 0.1476337378432511 1.0977385257676037e-06 4.942014133166203e-09 4.766633813686352e-09 4.401796615331609e-09 3.933139242840765e-09 3.4358567099153594e-09 2.9567996362007822e-09 2.519511744568032e-09 2.1316598258292204e-09 1.793006074219081e-09 1.4999519811845385e-09 1.2478609705044353e-09 1.032827830806622e-09 8.585987465467739e-10 7.879973369685161e-10 1.3069808420765563e-09 5.615404388636581e-09 3.247548596389645e-08 1.8051404695674863e-07 9.155267120236575e-07 4.2158346343526025e-06 1.7638222317762682e-05 6.71225467096037e-05 0.00023253564502854473 0.000733699896319396 0.0021086662577842453 0.005518987724292647 0.013148488754696644 0.028497170392643236 0.0561605015780867 0.10063561270258989 0.16410839538028119 0.24406366171203045 0.332421857872089 0.4166608993953945 0.48557213138193833 0.5121997131124472 0.49535739379401234 0.406000677673296 0.2676032887861935 0.11101744853664212 9.519291453402583e-07 4.23987157020988e-10 4.070819469601742e-10 3.733879800773547e-10 3.315320805200082e-10 2.8844174866200835e-10 2.479993191896504e-10 2.1182475674209827e-10 1.8019394791429823e-10 1.5279027899866975e-10 1.291148358542097e-10 1.0870892133052355e-10 9.162770889885534e-11 8.223738589816799e-11 1.1980579935142772e-10 4.984049241155362e-10 3.1714322016901707e-09 1.974597138469938e-08 1.1209308033957066e-07 5.766035210518154e-07 2.69055712608759e-06 1.1406926735040704e-05 4.399921882325521e-05 0.000154557242740449 0.000494716676243873 0.0014432414568332174 0.0038368065350705117 0.009290923038628385 0.020479969392576812 0.041068394181185484 0.07489123261917631 0.1242173684817118 0.18764344222565363 0.25873096517621225 0.3270076318164487 0.3782628318590557 0.398881310929116 0.37512406784221025 0.30265859655783306 0.1946636158127555 0.07899330232582251 7.858912429313563e-07 4.483365662451111e-11 4.2878445532557334e-11 3.911017964752395e-11 3.456773073067614e-11 3.00176352286772e-11 2.5848523497280018e-11 2.2190149440302287e-11 1.9033293147541258e-11 1.63169302745102e-11 1.3971733334287115e-11 1.1958341868767212e-11 1.0483622183984726e-11 1.1986884667625864e-11 3.7532395714499386e-11 2.4668202352194523e-10 1.7163872786157203e-09 1.0949717347116197e-08 6.316691228433707e-08 3.297782900673915e-07 1.561306502213435e-06 6.7158262247636675e-06 2.6285179072361923e-05 9.371665056469292e-05 0.00030461270123729225 0.0009029440809414464 0.0024409039243149908 0.0060152384701653225 0.013504699628577695 0.027599490278376475 0.051307590293655406 0.08672296175806628 0.13330007159169355 0.18649382491793756 0.23761966301517093 0.2754165240071605 0.2878468489448115 0.26744841155448446 0.211788235051539 0.13348194307714323 0.053297131547414084 6.125955052819498e-07 5.370089264412491e-12 5.118565444260946e-12 4.647035659659171e-12 4.094108630562405e-12 3.5546017124948063e-12 3.071719013993243e-12 2.656164104338797e-12 2.3025866269518763e-12 2.0006835750709016e-12 1.7406836621612991e-12 1.5247783562491574e-12 1.4658562226196462e-12 2.735744685694908e-12 1.555471535643838e-11 1.1879372101310761e-10 8.547660919532097e-10 5.557545738943327e-09 3.2600197487143624e-08 1.729224170549551e-07 8.313848385260379e-07 3.630494220400986e-06 1.4424199704306817e-05 5.221185558163656e-05 0.00017235493997564108 0.0005191754802336382 0.0014272911134164967 0.003580227886346307 0.008189250259311932 0.017065328117028215 0.03236296684183801 0.05579514527187556 0.087372333246557 0.12417768672744751 0.15999197802974885 0.18621061145354884 0.1942814952129545 0.17861433463755522 0.13951713382755276 0.08642726944853117 0.034024538994449044 4.4715442617323173e-07 6.983076039115808e-13 6.636693384817156e-13 6.001973444326417e-13 5.277250339706863e-13 4.587840079647713e-13 3.985577157686925e-13 3.478254910153389e-13 3.053890387444455e-13 2.6954488947020445e-13 2.389923130384437e-13 2.1689156279684285e-13 2.5296502355552564e-13 8.576363242125451e-13 6.576337497361086e-12 5.3259639928804866e-11 3.92590734319679e-10 2.6025293517801182e-09 1.5541683338660504e-08 8.383842044476197e-08 4.09581027307699e-07 1.8162474164823255e-06 7.324751076435702e-06 2.690971276369671e-05 9.017252013990909e-05 0.0002758461579233249 0.0007706847130352486 0.001966469141969896 0.004580082543064282 0.009727802844180044 0.01881601423024572 0.03309089769782974 0.05281586196513143 0.07634395305420949 0.09965062201779358 0.11689350457144497 0.12210167286335212 0.11164209681206294 0.0862716747963451 0.052681988412338045 0.02046288575553559 3.0336305583769843e-07 9.613254657251532e-14 9.113483369254757e-14 8.216354115609038e-14 7.217064401992137e-14 6.291371638574685e-14 5.503677794108512e-14 4.8565041049367374e-14 4.3271920130128825e-14 3.887939758168798e-14 3.525465484694048e-14 3.3864656459199254e-14 5.4283665815825976e-14 3.009465961845927e-13 2.641689605909328e-12 2.2176839613071078e-11 1.6738787148801932e-10 1.133112962407947e-09 6.898264998970477e-09 3.787927596982566e-08 1.8812742069018104e-07 8.471725815636079e-07 3.4667826363965873e-06 1.2917246662763748e-05 4.38940331419558e-05 0.00013619641409888688 0.000386181977108362 0.0010009100268368837 0.0023704388460806312 0.005124995653335025 0.010100164343024532 0.01810628645617186 0.029447979987083317 0.04331005972490834 0.057352109417146704 0.0679463969564879 0.07128011936192423 0.06502596350419909 0.04986165259039736 0.030075710481794395 0.011526087451514618 1.9004862624041561e-07 1.3779327448871046e-14 1.3035859301645889e-14 1.1723786705084012e-14 1.0298576809678733e-14 9.013881791892776e-15 7.952762578071211e-15 7.108144168230699e-15 6.4398258098337495e-15 5.90339395927457e-15 5.497989288158288e-15 5.769717149874759e-15 1.377777183086409e-14 1.0534148044721129e-13 9.940931699195519e-13 8.612244140302016e-12 6.668565839425933e-11 4.6193273602283975e-10 2.871512853006431e-09 1.6068035003817783e-08 8.116977874342637e-08 3.7117840064770353e-07 1.5403865846135785e-06 5.814927411202398e-06 2.0008540110391408e-05 6.28587739692609e-05 0.00018051972354697044 0.00047421718904205895 0.0011394842963292926 0.002502543160772488 0.005015451449400912 0.009150613350691625 0.015148849833722612 0.022659387348425607 0.030452185540378585 0.0364835051636671 0.03851092003186032 0.03513881284866892 0.02679273786507493 0.015986384660549798 0.006042802174571969 1.0934418427150226e-07 2.0318490706342503e-15 1.9190190554768533e-15 1.7227057543289883e-15 1.5148991593365607e-15 1.3330659012043949e-15 1.1880634743176964e-15 1.0774897434096629e-15 9.945375385732768e-16 9.322161527909198e-16 8.963022185281561e-16 1.0664035923378028e-15 3.794467999920894e-15 3.523861897525112e-14 3.5015611436402493e-13 3.1343732003169317e-12 2.4971631629532174e-11 1.7747256094051468e-10 1.1287873389552383e-09 6.44535476575011e-09 3.314038907125805e-08 1.53893414307051e-07 6.472535983796682e-07 2.472310203594567e-06 8.598159789953607e-06 2.728576465055236e-05 7.915280206540078e-05 0.00021013547174988584 0.0005107615103189922 0.001136065449139255 0.0023089232536772264 0.0042767407711354075 0.007192444169168599 0.01092661419479203 0.014893804058862675 0.018048103597256268 0.019187476240439646 0.017534871569049603 0.013313226901473955 0.00786462327439904 0.0029308217020934265 5.750524482611644e-08 3.0538723641606067e-16 2.8804960042328594e-16 2.582909639078865e-16 2.2759740695499583e-16 2.0161796396367967e-16 1.8178550193314614e-16 1.6759486653308522e-16 1.5790475625608418e-16 1.5168514167559124e-16 1.5137466632722268e-16 2.1067927314537052e-16 1.0559986916805538e-15 1.1107466556652905e-14 1.1565841415128457e-13 1.0735355420405363e-12 8.834392429105852e-12 6.463204567593612e-11 4.2171254428193133e-10 2.4617550699635554e-09 1.2897077896262353e-08 6.083019426490391e-08 2.5912286520161763e-07 1.0000419368263738e-06 3.5075145657282333e-06 1.1211888484935447e-05 3.274317110393461e-05 8.752348823934822e-05 0.00021435414760962056 0.000480982665768435 0.000987594278809525 0.001850741533241206 0.0031524573322453597 0.004852665087750207 0.006698108269555884 0.008203040424672046 0.008782759516086905 0.008043234704659837 0.006084250526361537 0.0035600200057990723 0.001307356599481569 2.7526845718231118e-08 4.643078944868092e-17 4.375458657396142e-17 3.9215438113761543e-17 3.466070210625348e-17 3.0948929219485814e-17 2.8274905022966064e-17 2.6546102767265567e-17 2.5581449503851898e-17 2.524145578126462e-17 2.626509990146595e-17 4.336275412688166e-17 2.846602481305076e-16 3.2820851156682904e-15 3.58769254802197e-14 3.4709532534158165e-13 2.9649555799801424e-12 2.2424677475268047e-11 1.5062477579576589e-10 9.012412018136372e-10 4.818620758480368e-09 2.309731607624267e-08 9.960222620553072e-08 3.877971469953735e-07 1.368274419117857e-06 4.390705055385959e-06 1.2856253019523294e-05 3.444210931111687e-05 8.457853010800453e-05 0.00019050553987674804 0.000393273529341482 0.0007422782827049746 0.0012754725800753132 0.0019827372355273407 0.002764139320357976 0.0034151457808523924 0.0036788347874273466 0.0033750405488909094 0.0025436493280288673 0.0014742006669682612 0.0005332612822148879 1.1943760993181693e-08 7.094347939259401e-18 6.681673890728054e-18 5.989554519457478e-18 5.3153887381105264e-18 4.7902734478967815e-18 4.4415601205859426e-18 4.25414722891224e-18 4.201627962284037e-18 4.2676415108451165e-18 4.6416642935951975e-18 9.015176589907606e-18 7.260370481328753e-17 9.059521723201563e-16 1.0451763117055627e-14 1.0609726333500652e-13 9.466479053457486e-13 7.442693351486295e-12 5.170153994119335e-11 3.1821496681161655e-10 1.740561856233351e-09 8.488819776125772e-09 3.705124930672291e-08 1.4531450594072332e-07 5.143487020107152e-07 1.6503827940257409e-06 4.821350983492771e-06 1.2872813111508756e-05 3.150473873700056e-05 7.079148090823604e-05 0.00014604067809686805 0.0002760451846240694 0.00047606009390036306 0.0007440514016912122 0.001043908062046264 0.0012976672104280439 0.0014038330873962525 0.0012888123018328379 0.0009672095028211045 0.0005550767299887561 0.00019770420509862118 4.675792650718381e-09 1.0828840415083482e-18 1.019728959471327e-18 9.148725857132984e-19 8.160011445663495e-19 7.43208276213997e-19 7.004680984508055e-19 6.857081838302946e-19 6.955200888006099e-19 7.287400296492694e-19 8.280087392799411e-19 1.838348103267161e-18 1.72584644392225e-17 2.325507628549543e-16 2.853522383204211e-15 3.064667370373876e-14 2.878596760738625e-13 2.3693379930533386e-12 1.7126100064987853e-11 1.0896772443759943e-10 6.119450661250612e-10 3.0428312246811106e-09 1.34478343513463e-08 5.305816451966164e-08 1.878313920340999e-07 5.998926412646621e-07 1.7382201055874126e-06 4.593569730152668e-06 1.1120929974378174e-05 2.4738653523048468e-05 5.061963392545391e-05 9.5149452349249e-05 0.00016364478097324986 0.00025573803493754394 0.0003594459949069975 0.0004479445713016665 0.00048539344628706945 0.00044516725505347845 0.0003323175639303839 0.0001887456087966583 6.617174555604313e-05 1.6425203586342694e-09 1.642000587511551e-19 1.5466210273415615e-19 1.3896722221352786e-19 1.2470324450361735e-19 1.149357060025235e-19 1.1028607519460205e-19 1.1054938364794697e-19 1.1540127724273495e-19 1.2497687159211416e-19 1.4782551271109997e-19 3.589606241855005e-19 3.775127544478545e-18 5.511951414653786e-17 7.26398074741822e-16 8.338104085900136e-15 8.325708180094174e-14 7.239549496290745e-13 5.489402707200996e-12 3.635297499379264e-11 2.1070091876134764e-10 1.0717823315421846e-09 4.8023860801471926e-09 1.9043181009586916e-08 6.721032363956549e-08 2.125301494883702e-07 6.06477160491188e-07 1.5730247946247797e-06 3.732432007555e-06 8.141925729246046e-06 1.63718876563898e-05 3.0340387245983172e-05 5.16395819288751e-05 8.015428097260539e-05 0.00011223449267805823 0.00013959903523397892 0.00015101668427460884 0.00013803971169251838 0.00010235416177965859 5.748856062327277e-05 1.983256757058237e-05 5.140869367343137e-10 2.459935809195258e-20 2.3184257039447395e-20 2.0876671139184532e-20 1.886688525280803e-20 1.762019823548831e-20 1.724046970511916e-20 1.7728224038950473e-20 1.908617911036898e-20 2.1407228395124957e-20 2.6228638665011964e-20 6.59822338610719e-20 7.4991631620185275e-19 1.193673677926326e-17 1.7090665726233678e-16 2.122182565091037e-15 2.2799256124364114e-14 2.1187839515196346e-13 1.7033415761143173e-12 1.1850443901824892e-11 7.142233039806434e-11 3.736279633967347e-10 1.7018406349154152e-09 6.780755598638259e-09 2.3781784241116102e-08 7.400146442676364e-08 2.0617399005127198e-07 5.193410470359089e-07 1.1937714330893462e-06 2.5234248994284933e-06 4.929651117480266e-06 8.912772160256345e-06 1.4873641787478347e-05 2.2750230766679082e-05 3.152885401412715e-05 3.8937175296946795e-05 4.1885102925523894e-05 3.805205042314121e-05 2.797499872220107e-05 1.552335139539279e-05 5.268161023051175e-06 1.4202030368171978e-10 3.6208838396473186e-21 3.41587380084855e-21 3.0846306386173336e-21 2.8103240192032094e-21 2.6629122309658487e-21 2.6610460580900395e-21 2.8121999203867886e-21 3.128913859464547e-21 3.642335853666766e-21 4.60400603928547e-21 1.1324558348261081e-20 1.3337001327011967e-19 2.328590114065866e-18 3.6675056691340715e-17 4.99515225815463e-16 5.857966860109504e-15 5.902779124008106e-14 5.101498151435603e-13 3.775997196127201e-12 2.391942367573733e-11 1.2972746047421273e-10 6.035695577004644e-10 2.418785075225085e-09 8.403979167398614e-09 2.5548458444744177e-08 6.875279461490493e-08 1.6594132426280497e-07 3.640563609195949e-07 7.345115496438848e-07 1.3742806210521643e-06 2.393321412229623e-06 3.873343795507209e-06 5.785022989760933e-06 7.876321967373503e-06 9.601199314814058e-06 1.0224302961046708e-05 9.202655833003728e-06 6.694220778675726e-06 3.6659625380761076e-06 1.223542728255712e-06 3.418742404990333e-11 5.20641471338403e-22 4.918438852024706e-22 4.45710552324644e-22 4.097602015891617e-22 3.944320055692717e-22 4.03166900853761e-22 4.386544333207633e-22 5.054275133311053e-22 6.120136860831805e-22 7.9745192183193e-22 1.822893586861016e-21 2.0958718203633676e-20 4.0230834287336117e-19 7.052781828248595e-18 1.069053861509438e-16 1.3910935424965241e-15 1.5466546983264344e-14 1.4626621348387366e-13 1.171506686440146e-12 7.918671260713217e-12 4.507129835197066e-11 2.15950446260962e-10 8.731792296860746e-10 2.99765404007907e-09 8.829008864982912e-09 2.263392874216208e-08 5.1433336884748065e-08 1.055893354475102e-07 1.9938716722508655e-07 3.509135969093305e-07 5.795928489606811e-07 8.981008017433071e-07 1.2963370656067304e-06 1.719784829580738e-06 2.056142504438673e-06 2.1572251002598628e-06 1.9171147850286564e-06 1.3768153383908786e-06 7.432491945406531e-07 2.4390050866978585e-07 7.043553390175707e-12 7.268802993397024e-23 6.878866242880342e-23 6.259614512628712e-23 5.812559214142449e-23 5.69077806552117e-23 5.958575691473102e-23 6.685812222815988e-23 7.99327020914842e-23 1.0091806836503737e-22 1.3596930802908336e-22 2.8075219324322266e-22 2.8926915589196242e-21 6.058194394540563e-20 1.1916236661667114e-18 2.0355680688528676e-17 2.987288307967823e-16 3.736676495630865e-15 3.9509317795307814e-14 3.5009384451152474e-13 2.578977132047414e-12 1.5688285303632808e-11 7.84589543614382e-11 3.222935567778773e-10 1.0921245497202954e-09 3.0847789244328182e-09 7.402118749462323e-09 1.544941406068262e-08 2.8898312594083633e-08 4.973866273564922e-08 8.047937981537624e-08 1.2373478536353913e-07 1.8091766934682275e-07 2.4954936413475715e-07 3.1982143926767675e-07 3.725751544132409e-07 3.832251885281978e-07 3.3510173363409444e-07 2.370700043841975e-07 1.26008974378467e-07 4.0647062381063506e-08 1.2103587918082446e-12 9.78894485998366e-24 9.282960184015002e-24 8.488714989904097e-24 7.969838983313266e-24 7.946207412444242e-24 8.53520083670279e-24 9.89304724839434e-24 1.2295641850547394e-23 1.6223840977591706e-23 2.2741554310473784e-23 4.290767402425162e-23 3.558249973172775e-22 7.88796389161645e-21 1.7417096292952325e-19 3.373747956733749e-18 5.649321779461413e-17 8.091609644901414e-16 9.789698812723475e-15 9.861108731087791e-14 8.145837937786687e-13 5.440197528750798e-12 2.9028025808589172e-11 1.2282191862340904e-10 4.1156001897451624e-10 1.103642320575696e-09 2.4125625021168257e-09 4.476230665189644e-09 7.321493145504153e-09 1.1083318698818538e-08 1.6004364448437466e-08 2.2410688292796828e-08 3.042979614902403e-08 3.964728831750697e-08 4.866738748085426e-08 5.489215137223096e-08 5.5094571197354796e-08 4.724582220323642e-08 3.28567476957581e-08 1.7176728989616553e-08 5.445819631048353e-09 1.6687235875049633e-13 1.2624057551094458e-24 1.200027230884093e-24 1.1035172461002129e-24 1.0486456648042098e-24 1.0660876620087217e-24 1.17637979738061e-24 1.4109328461223942e-24 1.826569993323849e-24 2.525025138198658e-24 3.707300469307746e-24 6.716773484696136e-24 4.445153896639207e-23 1.0033563859469745e-21 2.4151517794225944e-20 5.134567780929888e-19 9.458929413904183e-18 1.522061162265724e-16 2.1441701964808543e-15 2.5233996118768932e-14 2.421022689502947e-13 1.8437712243176744e-12 1.0873245985390808e-11 4.863263471413622e-11 1.6302613069507595e-10 4.0836115866638154e-10 7.922064490713605e-10 1.2211789789536452e-09 1.653938615525462e-09 2.08097557792438e-09 2.5880038010517975e-09 3.221182730462445e-09 3.997164492211066e-09 4.865283420712163e-09 5.675731719865228e-09 6.163263419706986e-09 6.0116431726055995e-09 5.0412679818455235e-09 3.440084048502579e-09 1.7672709241824903e-09 5.506586642571566e-10 1.7333936872310037e-14 1.5465115469258934e-25 1.474022938760621e-25 1.364060680170153e-25 1.3132832749833474e-25 1.3629734387490423e-25 1.5472365912893725e-25 1.9233556996419221e-25 2.5985500390976494e-25 3.7721285858473557e-25 5.829406486538149e-25 1.0517104056751092e-24 5.621004032417412e-24 1.2605090080099767e-22 3.310082853868568e-21 7.748383986326387e-20 1.5764325635071217e-18 2.807875355597991e-17 4.387765488205481e-16 5.7411872315986245e-15 6.425854141898948e-14 5.848199371899745e-13 4.014214694874182e-12 1.9939386534212445e-11 6.874641586452001e-11 1.620430514301216e-10 2.532205943765722e-10 3.0840567942530486e-10 2.964129909698686e-10 2.916812377390011e-10 2.9956476937192155e-10 3.239753919694307e-10 3.6215770183644033e-10 4.0810957587762805e-10 4.496963227750942e-10 4.681075821548087e-10 4.4237758250514265e-10 3.6198525327192506e-10 2.42061372153946e-10 1.2212499570448854e-10 3.74004517799539e-11 1.2076586734573474e-15 1.7832244173616087e-26 1.704730431120275e-26 1.5885849369310552e-26 1.550967282010843e-26 1.6450914973688073e-26 1.923717136674002e-26 2.4824260905762626e-26 3.5066384953555845e-26 5.356890046573327e-26 8.746377400670577e-26 1.6116933121565885e-25 7.154176366200831e-25 1.5487379516813803e-23 4.43573288309416e-22 1.1467085137781305e-20 2.5857681344791895e-19 5.1192197993941686e-18 8.917053067447493e-17 1.3049047495861648e-15 1.639533048153772e-14 1.6822523703064463e-13 1.3718684223566042e-12 8.091470989608037e-12 3.126734767758262e-11 6.859211314962947e-11 8.828451748773014e-11 4.9887300621518245e-11 3.1365929747176905e-11 2.2185319432098943e-11 1.827226401234948e-11 1.684702206331067e-11 1.6805264491512353e-11 1.743323056090527e-11 1.8082606525721236e-11 1.800249889127861e-11 1.6456005748157446e-11 1.3124928685348419e-11 8.595149607119866e-12 4.258109140425933e-12 1.2820664479188943e-12 4.24111066903786e-17 1.9149469256893336e-27 1.8366230260750405e-27 1.724566291805878e-27 1.7089022015881524e-27 1.8544292703254716e-27 2.236670943910097e-27 3.0005861462641656e-27 4.439521862199622e-27 7.15179145376389e-27 1.237528545138287e-26 2.3696979971194213e-26 9.076229965594892e-26 1.840428599303965e-24 5.739838769168475e-23 1.6429613878208413e-21 4.1189879519775165e-20 9.095190473038476e-19 1.7727701162969794e-17 2.9145326785423546e-16 4.1316344758223556e-15 4.815612381508583e-14 4.4868960051830343e-13 3.0952972237097953e-12 1.3745063566532193e-11 3.4974592436123e-11 3.3361098032583806e-15 1.904161255341299e-15 1.6198338313193691e-15 1.3435512595628218e-15 1.2735047546185266e-15 1.3216089823258386e-15 1.4635530638001965e-15 1.6658316880690886e-15 1.875543351293452e-15 2.0041991338302734e-15 1.94080624477068e-15 1.6138146408332827e-15 1.0814842265067498e-15 5.385396151442186e-16 1.601027637240491e-16 5.311909229059536e-21 1.8914354417728817e-28 1.820515019513538e-28 1.7235409594991806e-28 1.7348371347051023e-28 1.927906913149809e-28 2.401188108590294e-28 3.3535650033194546e-28 5.205603636446082e-28 8.860406093327654e-28 1.629124038977509e-27 3.280360141380259e-27 1.1306628303310691e-26 2.0884761901710514e-25 7.068452816672776e-24 2.2449343081372534e-22 6.272975686263306e-21 1.5488498308524526e-19 3.3868556428677137e-18 6.270851568037221e-17 1.005558727684347e-15 1.332587579919215e-14 1.4271921040908128e-13 1.1316345344680322e-12 6.094634297092933e-12 1.8350007257761374e-11 2.0825194865773064e-16 3.828143820802824e-18 2.0366228853609386e-18 1.0551024702620691e-18 5.571013191539949e-19 3.220727045332753e-19 2.2523372985131526e-19 1.9975577901387945e-19 2.0828555767162304e-19 2.245547652481464e-19 2.2531418737747198e-19 1.9385128559883035e-19 1.3263819782986856e-19 6.639104142534779e-20 1.9513811904211096e-20 6.496624750941599e-25 1.6929588484723223e-29 1.6356440506953296e-29 1.5621744231595265e-29 1.5983953215236674e-29 1.8206647186544048e-29 2.3442405783973997e-29 3.4131492398234685e-29 5.567203260424342e-29 1.0030271240456829e-28 1.964195832535586e-28 4.19328428585591e-28 1.354654009548458e-27 2.2295885714951772e-26 8.14387064443611e-25 2.8742088290092174e-23 8.967704352978506e-22 2.4798676241744828e-20 6.090531716476859e-19 1.270613961962145e-17 2.3023119302391317e-16 3.463919243062228e-15 4.215516389193532e-14 3.8787300066822654e-13 2.2821500801114584e-12 9.97269140062699e-12 4.517406990489253e-12 2.579010634387628e-12 1.3591208048653518e-12 6.841631938252159e-13 3.333598706452852e-13 1.5822296883675476e-13 7.32673705166225e-14 3.3029554406234024e-14 1.440777498976372e-14 6.012796719154379e-15 2.3549296473341986e-15 8.379608084986157e-16 2.559015421504221e-16 5.998208227921085e-17 8.125136007758926e-18 1.0467910367695485e-23 1.3481218722241565e-30 1.307683569921171e-30 1.2606230239256978e-30 1.3120686010019577e-30 1.5331204337242829e-30 2.0428747296267398e-30 3.1045848248175413e-30 5.329317964101451e-30 1.0181000495998424e-29 2.1278933155093236e-29 4.8447869634920156e-29 1.5205112546800707e-28 2.199281544092577e-27 8.60099934397039e-26 3.376328244290682e-24 1.1776444953722372e-22 3.64988056282033e-21 1.0066785671801562e-19 2.36280504699584e-18 4.822440549504613e-17 8.172119066655965e-16 1.1223632032576414e-14 1.1483937092