# vtk DataFile Version 3.0
vtk output
ASCII
DATASET RECTILINEAR_GRID
DIMENSIONS 41 41 1
X_COORDINATES 41 double
0 1 2 3 4 5 6 7 8 9 10 11 12 13 14 15 16 17 18 19 20 21 22 23 24 25 26 27 28 29 30 31 32 33 34 35 36 37 38 39 40 
Y_COORDINATES 41 double
0 1 2 3 4 5 6 7 8 9 10 11 12 13 14 15 16 17 18 19 20 21 22 23 24 25 26 27 28 29 30 31 32 33 34 35 36 37 38 39 40 
Z_COORDINATES 1 double
0
POINT_DATA 1681
FIELD FieldData 1
Concentracao 1 1681 double
1.0 1.0 1.0 1.0 1.0 1.0 1.0 1.0 0.9999999999999999 1.0000000000000002 1.0000000000000004 1.0000000000000004 1.0000000000000004 1.0000000000000002 1.0 0.9999999999999992 0.9999999999999932 0.9999999999999487 0.9999999999996532 0.9999999999978967 0.9999999999884642 0.9999999999423578 0.9999999997359149 0.999999998884367 0.9999999956321454 0.9999999840741964 0.999999945660733 0.9999998256476964 0.9999994710196555 0.9999984722641436 0.9999957642002144 0.9999885967890765 0.999969719882833 0.9999189644525959 0.9997749980651081 0.9993267706284853 0.9977310465984417 0.9910198388411385 0.9578195161682403 0.7800836553728661 9.988950831058663e-06 1.0 1.0 1.0 0.9999999999999999 0.9999999999999998 1.0 1.0000000000000002 1.0000000000000002 1.0000000000000002 1.0 1.0000000000000002 0.9999999999999999 0.9999999999999998 0.9999999999999996 0.999999999999999 0.9999999999999978 0.9999999999999891 0.9999999999999238 0.9999999999994946 0.9999999999969775 0.9999999999836294 0.9999999999191623 0.999999999633901 0.9999999984709945 0.9999999940815046 0.9999999786702244 0.9999999281046683 0.9999997723258415 0.9999993193310338 0.9999980678417345 0.9999947545875446 0.9999862446372751 0.999964642591492 0.9999089434031848 0.999757270327894 0.999301205208278 0.9977078015640924 0.9910558856796806 0.9580675341302344 0.7807573174363466 9.990216929733997e-06 1.0 1.0 1.0 1.0000000000000002 1.0 1.0000000000000002 1.0 0.9999999999999997 0.9999999999999998 0.9999999999999996 0.9999999999999993 0.999999999999999 0.9999999999999991 0.9999999999999993 0.9999999999999989 0.9999999999999958 0.9999999999999705 0.9999999999997915 0.9999999999986781 0.9999999999924533 0.9999999999608982 0.9999999998149398 0.9999999991952858 0.9999999967682733 0.9999999879601557 0.9999999582172266 0.9999998644383841 0.9999995874076528 0.9999988180685133 0.9999968021070639 0.9999917936627346 0.9999798959679687 0.9999524071631843 0.9998884602825471 0.9997303181991432 0.9992806470685159 0.9977505314664864 0.9912901595443919 0.9587891726695068 0.7820673718906077 9.994790200124033e-06 1.0 0.9999999999999999 1.0 1.0 0.9999999999999997 0.9999999999999998 0.9999999999999996 0.9999999999999994 0.9999999999999988 0.9999999999999983 0.9999999999999972 0.9999999999999953 0.9999999999999921 0.9999999999999853 0.9999999999999641 0.9999999999998778 0.9999999999994421 0.9999999999971791 0.9999999999858948 0.9999999999333247 0.9999999997060635 0.9999999987946316 0.9999999953962954 0.9999999835867351 0.9999999452423952 0.9999998286759918 0.9999994962957409 0.9999986063995964 0.9999963691484901 0.9999910919942315 0.9999794369815658 0.999955372236274 0.9999087115827744 0.99982109169157 0.999645171275367 0.9992193251084315 0.9977798432368733 0.9916292426273535 0.9595804356873445 0.782843937676729 9.999060236473465e-06 0.9999999999847621 0.9999999999833459 0.9999999999798583 0.9999999999736632 0.9999999999637311 0.9999999999486652 0.9999999999264575 0.9999999998941392 0.9999999998472043 0.9999999997786236 0.9999999996770402 0.999999999523263 0.9999999992830598 0.9999999988916886 0.9999999982196769 0.9999999969953138 0.9999999946272377 0.999999989796483 0.9999999795193152 0.9999999570094936 0.9999999068588438 0.999999794368648 0.9999995424669292 0.9999989832431495 0.9999977598790604 0.9999951370605171 0.9999896552578278 0.9999785476726556 0.9999568717213034 0.9999164772006381 0.9998454551707111 0.9997298243512117 0.999559763430932 0.9993446099157605 0.9991011547855938 0.998721722904028 0.9975576674738078 0.9917267273114135 0.959710162001138 0.7809410371428636 9.997196608479635e-06 0.9999940309399898 0.9999937653341759 0.9999931789528381 0.9999922477979363 0.9999909521326699 0.9999892592972788 0.999987113915996 0.9999844231558754 0.9999810434342732 0.9999767645456533 0.9999712878798317 0.9999641975062544 0.9999549188515104 0.9999426634341845 0.9999263511697157 0.9999045058705268 0.9998751110631696 0.9998354131954007 0.9997816577451898 0.99970872473893 0.9996096463011469 0.9994749450399211 0.9992917788955604 0.9990428393495282 0.9987049662567788 0.9982475638383991 0.9976311400325893 0.9968066113342461 0.9957171675802139 0.9943064198492638 0.9925406721946068 0.9904536951512538 0.9882664546232711 0.9863431747983148 0.9867055144163633 0.988233071717784 0.9924546564913003 0.9895705415392305 0.9573226565756645 0.7736954460406503 9.98132427497576e-06 0.011218752437324146 0.01113347975143048 0.010929624927302846 0.010633683758896601 0.010276551776190492 0.009883728141919623 0.009473202088551059 0.009056189892723679 0.00863891267153169 0.008225542729039853 0.007817966921342021 0.007417545475801129 0.0070251857084359295 0.006641067251331125 0.00626570685961139 0.005899244251905031 0.0055418963084842105 0.005193669616007868 0.004854684798415043 0.004525065568161748 0.004205039644187159 0.003894580580103357 0.003593790703624222 0.003302893083373526 0.0030219930577740878 0.0027511215768234315 0.0024905674152373267 0.0022404738251822066 0.0020011250789780453 0.0017725946801400553 0.0015556298128088012 0.0013488048648669978 0.001159757865769801 0.0009480027670344426 0.0009683839098683014 0.9868187560507395 0.9887979143507466 0.986357667547934 0.9515072650169741 0.7572508842003363 9.939114626205921e-06 6.322055630301507e-05 6.230120328862592e-05 6.012019685247516e-05 5.70087515293151e-05 5.334281610505798e-05 4.9428008346117256e-05 4.547846608796503e-05 4.1621206496113876e-05 3.7926286547215266e-05 3.442959353171669e-05 3.11458959747384e-05 2.8079437327428316e-05 2.52278188771047e-05 2.25844487066998e-05 2.0142370765892158e-05 1.7893588743608332e-05 1.5828624529217297e-05 1.3938555099244859e-05 1.2215307636863386e-05 1.0651935675102772e-05 9.244729627175011e-06 7.99715614467444e-06 6.92547496838936e-06 6.066508047726314e-06 5.4806992527089955e-06 5.248531597180947e-06 5.452393598717986e-06 6.145349680920508e-06 7.319877603408246e-06 8.8932321262084e-06 1.0722340028395372e-05 1.2639031972278241e-05 1.4488662691836259e-05 1.614106169558793e-05 3.695438043501546e-05 0.9846474464149884 0.986403174397334 0.9819489344146052 0.9393631950906858 0.7285774958894188 9.852904556499277e-06 2.39024623866397e-07 2.32766508431552e-07 2.1883919436508238e-07 2.0004736529663048e-07 1.7911762348152061e-07 1.5801333608775553e-07 1.3791118339553837e-07 1.1938913309582438e-07 1.026717147899136e-07 8.784650044356587e-08 7.541992576422281e-08 6.979073886075763e-08 1.0134133073677264e-07 3.5021214834526516e-07 1.751181985688247e-06 8.571776543620563e-06 3.7983184687246947e-05 0.0001508975707854505 0.0005375919305512725 0.0017200489861704542 0.004949326883927385 0.01282285916440266 0.029943401976057583 0.06308727156270219 0.12007296032589933 0.2068140534747803 0.3232627041478254 0.46056414860673023 0.6021671069250158 0.7294998140363905 0.8293286073902201 0.8979342987420674 0.9398920877199517 0.9633414269699552 0.9757449803610797 0.9808645854572206 0.9791642651150493 0.9644560144226297 0.9053626858187807 0.6722625936549977 9.680320882913482e-06 1.7890149913207328e-08 1.7340940286308383e-08 1.6201663508493152e-08 1.4729216496147273e-08 1.314907525053848e-08 1.1602935370321505e-08 1.0164163490193463e-08 8.859265179501742e-09 7.695240442957004e-09 6.7121992926448165e-09 6.3331580416001516e-09 9.953813913807717e-09 4.083120366569901e-08 2.3796657798723874e-07 1.3308332811958573e-06 6.690308737541658e-06 3.005345685524589e-05 0.00012080925316167615 0.00043547044748619114 0.001410137651291816 0.004108301832487003 0.010782100439598359 0.02551855001471122 0.05452227533863822 0.10529200471410316 0.1841028727784207 0.2922242875619029 0.4228199699279849 0.5611994982083046 0.6895123097886632 0.793653597663611 0.8680095345193609 0.9153153842229679 0.9424232028783701 0.9565075451274545 0.9591048619003597 0.9532584247857241 0.9249112519145913 0.8381475078783589 0.5911286001137085 9.374909357793033e-06 2.0493439021795182e-09 1.9792393581935926e-09 1.8413702935219509e-09 1.669560307437744e-09 1.4909580279914858e-09 1.320871371114566e-09 1.165833328487058e-09 1.0273235749923687e-09 9.071731580609322e-10 8.351792227155523e-10 1.1013153052142846e-09 4.02981096726336e-09 2.575310603041866e-08 1.641955453686312e-07 9.414413102320308e-07 4.809175229822206e-06 2.1924810185483005e-05 8.943518746413688e-05 0.00032719234134437797 0.0010756420469103115 0.0031827839577447167 0.008488359804036448 0.02042855820710174 0.04441709498219781 0.08736172885699982 0.15569821013851456 0.2520700752026286 0.37212723713355833 0.5038490894715245 0.6308736175941 0.7385568567060004 0.8191366938197546 0.8726459769706091 0.9041721571212048 0.9186213265321654 0.9190298798333552 0.9022397557004416 0.8566403371272241 0.7479783103353056 0.49933427941082276 8.899503353817407e-06 2.8700049230054025e-10 2.763616834513174e-10 2.5634155842086034e-10 2.3221588261892232e-10 2.0788209461997295e-10 1.853269962978059e-10 1.6522456810184e-10 1.4765190156982705e-10 1.340046582324149e-10 1.4288646584307957e-10 3.5263578079544237e-10 2.215448179812204e-09 1.600461000126494e-08 1.0529010592365165e-07 6.15533539208709e-07 3.2002978807162634e-06 1.4843313756648973e-05 6.159092891809423e-05 0.000229208490022352 0.0007666349280402451 0.0023087505098198014 0.0062700691043268315 0.015377238338930416 0.034101414800581195 0.06848028948922097 0.12474212442920583 0.20661028580532587 0.31225355753934697 0.4328417178883156 0.5543938157532221 0.6625659403909538 0.747681648290583 0.8068505139204845 0.842164005460857 0.8571509756028519 0.852994236784595 0.8268530273858451 0.7662274198939711 0.6440102759142959 0.40869066013305866 8.229930723424732e-06 4.524632025981346e-11 4.346184891221972e-11 4.0230922705853905e-11 3.6459779612670706e-11 3.2771864070060424e-11 2.945293570886261e-11 2.6576251063044505e-11 2.416936842870364e-11 2.3077959331196145e-11 3.3630884164211266e-11 1.5608979316810771e-10 1.2253208694382056e-09 9.283946162232692e-09 6.25689460868934e-08 3.7349219769458377e-07 1.9809655778024105e-06 9.368049644259658e-06 3.961888677190643e-05 0.00015023950057478338 0.0005120295385314507 0.0015715004348045576 0.0043514120226635705 0.010888174742360365 0.02465858507411112 0.050625814146144414 0.09439856507395379 0.1602391809857331 0.24842537512917495 0.35338525000525495 0.4642112166380765 0.5679376599076477 0.65388350865729 0.7164312669496791 0.7547459390005888 0.7700687530265713 0.7628039543268481 0.7294884536807302 0.6602945011376077 0.5356677804182809 0.32457389594353364 7.360530259764655e-06 7.704953145697517e-12 7.386125863493382e-12 6.8282973549684636e-12 6.1978514410407e-12 5.6009969364082374e-12 5.082327221089726e-12 4.649987949893715e-12 4.324865529125547e-12 4.54108815509084e-12 1.0518414068403912e-11 7.414320688618978e-11 6.392072265346181e-10 5.003460203380118e-09 3.4574011885904e-08 2.1124074118694713e-07 1.1456302164344394e-06 5.534976868919501e-06 2.389781520128905e-05 9.246822918806673e-05 0.00032144670832038425 0.001006242126505739 0.002842365367919875 0.007259359182026299 0.01679466489397362 0.035262835651607635 0.06733175145419287 0.11719796012417778 0.18652910710214013 0.272572289603529 0.3677316006776443 0.46135116422604716 0.5429937098144915 0.6053119758980189 0.6448603849868849 0.6607443581317203 0.6521776211565519 0.6162477424795942 0.5458911960187917 0.42898215252518596 0.2494055966238267 6.3142523110466674e-06 1.383016574173317e-12 1.323578869017427e-12 1.222962973039619e-12 1.1127890845864435e-12 1.0123047437729185e-12 9.287667600388409e-13 8.63216941102895e-13 8.270262604257902e-13 1.0187602472814115e-12 3.860008599702169e-12 3.416725417273519e-11 3.1087262580682664e-10 2.5101845181506053e-09 1.7830088308304743e-08 1.1180888353627422e-07 6.215171518295993e-07 3.073868908350622e-06 1.3570569593662859e-05 5.363824095653388e-05 0.0001903316993064723 0.0006078890781857008 0.0017517370295729885 0.004565222463987927 0.010784067106313997 0.023141966014892493 0.04521910349368283 0.08065809550445417 0.1317243666445751 0.19769122675566347 0.27395172797978945 0.35264637993721726 0.4247430594563205 0.4824745145772106 0.520733842547466 0.5368202253021055 0.529029830773855 0.4949431452063698 0.43026649663049454 0.328734851847271 0.18417156777425345 5.148722424960502e-06 2.5748158962888197e-13 2.461005887707852e-13 2.2740903263854265e-13 2.0762866923987814e-13 1.9034532890181973e-13 1.7680896983624813e-13 1.6724727535150855e-13 1.6666403922078746e-13 2.574831884899837e-13 1.4746593172373394e-12 1.481339542089738e-11 1.407630184961124e-10 1.1752416869772033e-09 8.609665785558623e-09 5.558090209211862e-08 3.1750352139161646e-07 1.6109140749594365e-06 7.2838326722764415e-06 2.944174004202434e-05 0.00010670239159030163 0.0003477255760121214 0.0010218106305517917 0.002715018590234689 0.00654066701933664 0.01432441508312218 0.028596041474176763 0.052181909102098474 0.08730159739860689 0.13437152150501894 0.19105476951523673 0.2521917199901669 0.31085088775016373 0.3600459827892673 0.3941884244990408 0.4095606208618645 0.40379880698667303 0.37494590392646066 0.3207787178632033 0.2390879143879782 0.12954028940447762 3.9531345319298155e-06 4.914245754456215e-14 4.692713305493274e-14 4.3390986900720035e-14 3.978683965184781e-14 3.6799691304501796e-14 3.465345947533143e-14 3.3425932836407473e-14 3.5024298730208896e-14 7.069126837203116e-14 5.4835865299185e-13 5.985664879097531e-12 5.936727912311438e-11 5.144677663702624e-10 3.902550825413663e-09 2.602909136192757e-08 1.532707077599508e-07 7.997603608326167e-07 3.710607244831462e-06 1.5357272787479334e-05 5.687926163166143e-05 0.00018912149467029108 0.0005663236361623935 0.001532225782268022 0.003757688775274453 0.008380094550609079 0.017048738934285164 0.03174101968554004 0.054253140605492606 0.08541795968690133 0.12433089063104695 0.16799344832315868 0.21167607299908345 0.24991796107195993 0.2776855919019107 0.2911195507956745 0.28764644922524324 0.2656532737361841 0.22424536560047914 0.1635214631529028 0.08593013775608184 2.831010385272004e-06 9.529514954579125e-15 9.094296234197527e-15 8.4198585862918e-15 7.760109100606062e-15 7.249188822229517e-15 6.929121499099008e-15 6.828278400800876e-15 7.591252315068014e-15 2.0044488862237906e-14 1.923423512856949e-13 2.2450926403853772e-12 2.331744503791144e-11 2.1077158569944277e-10 1.6633977295606981e-09 1.1511324276723476e-08 7.013094260709989e-08 3.7750372431427145e-07 1.8014621773916186e-06 7.64640887929026e-06 2.8965195338393692e-05 9.826151924169019e-05 0.00029959867944542005 0.0008240597008840234 0.0020526103479988726 0.004647829872866431 0.009603853257160856 0.018176039566956917 0.03161969679306268 0.05073537982312972 0.07534087049047965 0.10389798400140646 0.13352617669018704 0.16047247610645496 0.18086037905167968 0.19138581391746246 0.1897109438174819 0.17454646941752083 0.14566794487104154 0.10416801611140672 0.05321426233209494 1.8738326820893308e-06 1.8637463271107774e-15 1.778135152704349e-15 1.6493525467227576e-15 1.5292264493946779e-15 1.4443252262066077e-15 1.4031296546012289e-15 1.4147365888910284e-15 1.674632515931204e-15 5.602659648266396e-15 6.262567296032395e-14 7.788542116126449e-13 8.516974275155343e-12 8.078897503679901e-11 6.670992221252524e-10 4.815027061060438e-09 3.049061881411492e-08 1.699702661384972e-07 8.368361527224938e-07 3.6508235552404462e-06 1.4162057018557277e-05 4.902829930173207e-05 0.00015208503027203064 0.0004245062650379058 0.0010710059015057096 0.0024536355102072072 0.00512784427999005 0.009819595380780484 0.017301732492618415 0.028155040923387553 0.042457883517295826 0.059512025833188396 0.0777424545704636 0.09486247809563753 0.10827733933059307 0.11557957391771537 0.11496207285386503 0.10546977347830669 0.08714648762957758 0.06122049342458525 0.030457294405602103 1.1363886673404089e-06 3.6529542951695116e-16 3.4852334324293316e-16 3.2407552333224397e-16 3.0253050135218615e-16 2.8920214410754317e-16 2.8591259323336343e-16 2.9525404409191946e-16 3.703833890568239e-16 1.490702664074008e-15 1.872743355700903e-14 2.4873098205177394e-13 2.883811210010567e-12 2.8910889776283843e-11 2.5150279893478873e-10 1.905481761295596e-09 1.2614376367614281e-08 7.31901821311044e-08 3.73308491909372e-07 1.6790894947015137e-06 6.6828689097235895e-06 2.362650560044695e-05 7.451790820835797e-05 0.00021067774597432554 0.000536711110374753 0.0012388301330355806 0.002605313981894749 0.005019308423237748 0.008903146494726066 0.014603794233905726 0.022232939589692684 0.031505030859902805 0.041640599105410105 0.0513976875407743 0.059254688270107526 0.06369896178873882 0.06353360014512197 0.05812848709136373 0.04758902139714329 0.03288183615806119 0.015953560361750236 6.260744033402352e-07 7.133943360391227e-17 6.80887819398231e-17 6.350553715542168e-17 5.973876655911524e-17 5.786241576650608e-17 5.828537917044789e-17 6.168066374104309e-17 8.0933829535552e-17 3.682435412364796e-16 5.0906506461301165e-15 7.261044119725164e-14 9.000000167183127e-13 9.617653874025192e-12 8.887825237252461e-11 7.124287090772002e-10 4.96661677133347e-09 3.01887308584211e-08 1.6039743025660585e-07 7.470287565589218e-07 3.059634452199381e-06 1.1062480084182857e-05 3.547048860854415e-05 0.0001013910723192167 0.00025992755681582773 0.0006015376237811631 0.0012653168231942184 0.002435500924313124 0.004316766507141422 0.0070836599359759625 0.010808129125004177 0.015379805879795627 0.020445805142999256 0.025403555735018152 0.02946929516689822 0.03181975234858223 0.031774873078802425 0.02897357900529275 0.023505238889229643 0.015985115053628603 0.007571558460762261 3.106411801809996e-07 1.380606816695865e-17 1.3186356104837438e-17 1.2343294970285989e-17 1.1710230125538014e-17 1.1504380360727237e-17 1.1821824001835604e-17 1.2824779303410161e-17 1.727932830716094e-17 8.294580626676471e-17 1.2434335401344755e-15 1.9184849600058755e-14 2.566469403798907e-13 2.952649050112202e-12 2.927392417497044e-11 2.5067599741630133e-10 1.8572660754107458e-09 1.1926241846567408e-08 6.64970061167336e-08 3.226276137683382e-07 1.365882477762912e-06 5.0639531919152024e-06 1.6516572351165766e-05 4.766057522734471e-05 0.00012250461193416453 0.00028265888791111955 0.0005903780414224898 0.001125770892320805 0.0019756763864130257 0.003213313084358696 0.00486979536442791 0.00690143813315314 0.009161249768367533 0.011388175350209582 0.01322860257880758 0.01429533494177323 0.014257625783011488 0.012939033172258526 0.010396880186080539 0.006960806333246347 0.00322140455405055 1.3749744344882886e-07 2.633692763085618e-18 2.5179835045845922e-18 2.366879238839359e-18 2.266504269516117e-18 2.260828110755348e-18 2.3728511357068317e-18 2.6400708234658503e-18 3.5855448603789725e-18 1.6822075432516682e-17 2.692106271729703e-16 4.528043460428301e-15 6.605952567068365e-14 8.273799779819378e-13 8.903900517475548e-12 8.240728652339957e-11 6.563561328214086e-10 4.5011976265927675e-09 2.659685134561745e-08 1.3556290083832448e-07 5.971600547581153e-07 2.280106719942632e-06 7.578555806256131e-06 2.205514451613373e-05 5.6622319348632656e-05 0.00012941155419039262 0.0002660418853443238 0.0004973431522459648 0.0008544234333991123 0.001361572466846935 0.002027096128090951 0.0028325006751063623 0.0037216680460045014 0.004594690394322009 0.00531295410936046 0.005720275126056265 0.005680068392246166 0.0051200801255802285 0.0040708243751271115 0.0026827844058067776 0.0012137861423976812 5.3687272894509465e-08 4.925580344221093e-19 4.715294625072932e-19 4.453474443122839e-19 4.3080349724160853e-19 4.367509768158293e-19 4.687504056518532e-19 5.354092587226716e-19 7.2408615684728435e-19 3.057213310279892e-18 5.0909829686172974e-17 9.395411427101564e-16 1.510385176493967e-14 2.0841178267606699e-13 2.4663174375701824e-12 2.5013176733105256e-11 2.171927496673262e-10 1.6127181750886872e-09 1.0230451115042367e-08 5.541686003053497e-08 2.564382937424914e-07 1.015426400607887e-06 3.452219692350946e-06 1.0132898229251836e-05 2.5884388365402915e-05 5.815539427361084e-05 0.00011640361059115917 0.00021052517317871926 0.0003489827432172927 0.0005370200468489696 0.0007747701146904323 0.0010545153660356404 0.0013572340669981554 0.0016498963472614716 0.0018861533741335896 0.002012669886813202 0.0019821550196716664 0.0017702478242353614 0.00139068028765251 0.0009017585736834421 0.00039902705922787595 1.8233087701079324e-08 8.98046571679451e-20 8.61126500554015e-20 8.176517790569946e-20 7.995895899419439e-20 8.246774554374676e-20 9.061361835198773e-20 1.0640641683860126e-19 1.4306520683579582e-19 5.025911472304908e-19 8.299086045574083e-18 1.6846176792023016e-16 3.010042856542855e-15 4.627705089232134e-14 6.103425573787574e-13 6.887056652649219e-12 6.62764196406167e-11 5.420068808463677e-10 3.753992606455339e-09 2.195498842918968e-08 1.082018973871524e-07 4.4911372893433123e-07 1.572348247575956e-06 4.663564841389818e-06 1.1811466528181025e-05 2.5855230924854873e-05 4.9693394634438816e-05 8.547019782499046e-05 0.00013413980124592456 0.00019563948268543934 0.0002688858719743333 0.00035127676136534715 0.0004375294979115783 0.0005186261464630162 0.000581675276104585 0.0006115748696378201 0.0005948349769909088 0.0005248172784987478 0.00040668076302812417 0.0002592950178934594 0.00011225250957603113 5.285789584868853e-09 1.5867632357855668e-20 1.5245105684529756e-20 1.45604513361632e-20 1.4405056450111596e-20 1.5127748034415973e-20 1.7035525108228827e-20 2.0601500014802192e-20 2.776040321737994e-20 7.715743027864255e-20 1.1589051651166428e-18 2.572101668010775e-17 5.131534697296551e-16 8.862178929786343e-15 1.3177650894084168e-13 1.6790965170658084e-12 1.822890257310572e-11 1.6750335872766973e-10 1.2938218636440917e-09 8.343702051069714e-09 4.465747400519105e-08 1.975000116654494e-07 7.202991407841989e-07 2.1698249145174045e-06 5.4353489332258095e-06 1.1465874038437068e-05 2.0788770795887063e-05 3.3199224230034787e-05 4.8090167374654625e-05 6.483684641653487e-05 8.308096077789822e-05 0.00010235895962626823 0.00012168356783558382 0.0001391453785227693 0.00015186226623798322 0.00015635946197041463 0.0001495211626091791 0.00012992883772458184 9.912979520788692e-05 6.20996713407561e-05 2.6307696581169198e-05 1.2740597712258414e-09 2.6996067302810285e-21 2.5994565915099898e-21 2.498860719528681e-21 2.5031204791640267e-21 2.6792145810966748e-21 3.0955919580879736e-21 3.862564842705871e-21 5.2917106893130206e-21 1.1960492742219309e-20 1.4622845653025365e-19 3.421677770090659e-18 7.433433887643485e-17 1.436361393907135e-15 2.422841216645292e-14 3.523375344906787e-13 4.3831424202669194e-12 4.619428444780475e-11 4.0782119532229536e-10 2.9792820329641788e-09 1.7792286730458708e-08 8.592494112236162e-08 3.327901284203178e-07 1.0295560546982737e-06 2.5498814619087426e-06 5.123406554007396e-06 8.531166809940591e-06 1.2251134404094333e-05 1.5758154896488333e-05 1.8993010575296894e-05 2.2068919938653913e-05 2.512036887136396e-05 2.807311215748115e-05 3.062542322796001e-05 3.225847480539213e-05 3.232902632892845e-05 3.026207714972841e-05 2.582202574696139e-05 1.93623489561262e-05 1.190818695959567e-05 4.937880293738269e-06 2.4554657381371117e-10 4.39094927729054e-22 4.2387143367496425e-22 4.10363851870533e-22 4.1656305723388178e-22 4.548987290033791e-22 5.398907852316682e-22 6.963045134271304e-22 9.811085546180921e-22 1.9481430188316333e-21 1.846390739343491e-20 4.477256064780573e-19 1.0595025642118183e-17 2.244302620795042e-16 4.1638089553599615e-15 6.678278436096812e-14 9.18398635764333e-13 1.0937929870619128e-11 1.1293781554508112e-10 9.635976597716603e-10 6.6517474873772896e-09 3.635435066875564e-08 1.543291181955221e-07 5.011578815814074e-07 1.2364507368475055e-06 2.3238729452777683e-06 3.452062061772414e-06 4.185242506742339e-06 4.537152571853909e-06 4.640023728990793e-06 4.7295705762715075e-06 4.861114929056516e-06 5.029181493568323e-06 5.178353343561952e-06 5.224324451318538e-06 5.0684466447695e-06 4.626119653404379e-06 3.865888662266305e-06 2.844372085290927e-06 1.7163449978845278e-06 6.967893140806877e-07 3.5529579143823646e-11 6.773862239211302e-23 6.557071123436804e-23 6.397054502707666e-23 6.585925176931058e-23 7.344620790694997e-23 8.964273809717446e-23 1.1968219430489837e-22 1.746331454434073e-22 3.2431950467378593e-22 2.333219394677124e-21 5.715455141519007e-20 1.4729343647320008e-18 3.4261293233117876e-17 7.005722168019563e-16 1.2421805787963562e-14 1.893557347683257e-13 2.50582836977685e-12 2.8819581144913517e-11 2.7456636905700885e-10 2.2152225795575358e-09 1.437452322562999e-08 7.019081735985015e-08 2.4975868576446087e-07 6.268255832927307e-07 1.1000993953418395e-06 1.334721137670443e-06 1.2870093750689086e-06 1.0221492373286034e-06 8.384807146645213e-07 7.210760892711321e-07 6.549001694180032e-07 6.185458397238577e-07 5.957694245974463e-07 5.721670960235562e-07 5.350398481903507e-07 4.7475809190415876e-07 3.877564656662186e-07 2.7961818423835146e-07 1.6547011832707327e-07 6.579188810161035e-08 3.4359579001364632e-12 9.821747940466023e-24 9.536442826475611e-24 9.380510595205887e-24 9.80176809325524e-24 1.1173112012709293e-23 1.403895517771078e-23 1.9430477031632163e-23 2.9488929302989326e-23 5.35652192249218e-23 2.9511226734852004e-22 7.054365401715319e-21 1.9774308583073582e-19 5.05923955850589e-18 1.1424826085048847e-16 2.2445297784003623e-15 3.802255893733278e-14 5.607114248475693e-13 7.207110651883812e-12 7.698615770844975e-11 6.991286639687892e-10 5.129186382908749e-09 2.960997337279549e-08 1.2287765400079826e-07 3.3695904567278456e-07 5.412287595414114e-07 5.158677012155678e-07 2.488028955636625e-07 1.343398895419571e-07 8.181874269060755e-08 5.771512323851564e-08 4.546843084679274e-08 3.8829033229305865e-08 3.4776128379802845e-08 3.167558145270235e-08 2.8479890711654502e-08 2.452589695068972e-08 1.9557165299635646e-08 1.38145877847107e-08 8.01726884201547e-09 3.123667387381335e-09 1.6691128123086044e-13 1.3245175010808285e-24 1.2902754412429756e-24 1.2803336865589088e-24 1.3587744263228154e-24 1.5845064557805131e-24 2.0517734702778534e-24 2.94757151024068e-24 4.6669959551191066e-24 8.54106813715681e-24 3.727458120432061e-23 8.334874646571204e-22 2.5343728380754516e-20 7.142961743046734e-19 1.784766750360735e-17 3.892955035790533e-16 7.34456872166848e-15 1.2097337063445637e-13 1.7420393303887623e-12 2.092276416226598e-11 2.1447248098918626e-10 1.7873443951997897e-09 1.1783007142471131e-08 5.707738019064466e-08 1.7748213816477022e-07 3.069011305658092e-07 2.8270328282516496e-11 1.3660867800988354e-11 9.974278472354936e-12 7.114424190676856e-12 5.766571817952766e-12 5.1036055691434225e-12 4.826949552335167e-12 4.729294801377598e-12 4.65902073413606e-12 4.478421599112236e-12 4.0706809108016725e-12 3.376818193117471e-12 2.4409937237301063e-12 1.4238839507568594e-12 5.462587581180919e-13 2.883180112068755e-17 1.6408441937842183e-25 1.6041074687973476e-25 1.6065324431943156e-25 1.7327943697987602e-25 2.068804931694865e-25 2.7634339643364433e-25 4.1256685546059003e-25 6.830381576138628e-25 1.2834965938201792e-24 4.662197968524793e-24 9.322528187183332e-23 3.059858834262881e-21 9.512227133613271e-20 2.6342113908199644e-18 6.390315884890767e-17 1.3449721710677653e-15 2.4782397359220167e-14 4.003651372652836e-13 5.41178090972493e-12 6.2658287392041e-11 5.922156944405491e-10 4.4695702457179755e-09 2.4743144475470402e-08 9.24073052994356e-08 1.8639826034961676e-07 3.641638917611453e-12 9.413961603927395e-14 5.693736121511919e-14 3.313770452281303e-14 1.8826486679379408e-14 1.0559598134928717e-14 5.929809810150782e-15 3.4071315746208824e-15 2.0655648172675277e-15 1.3563309101123893e-15 9.576521395779497e-16 6.876472323061788e-16 4.597363885696616e-16 2.5545657551573536e-16 9.385011635674081e-17 4.7983658738794976e-21 1.839862156078448e-26 1.8054387846713892e-26 1.8258057851779847e-26 2.0026363627850486e-26 2.4497088228646448e-26 3.378661556179191e-26 5.248311187719616e-26 9.102187814596214e-26 1.777380762845473e-25 5.6767127639222155e-25 9.745555124303633e-24 3.425591155600686e-22 1.1757013794692476e-20 3.61375918652115e-19 9.763497041222476e-18 2.29514001198748e-16 4.734801043700789e-15 8.583025715496436e-14 1.3048835095188094e-12 1.7022501260927648e-11 1.818762295455167e-10 1.5501954062418034e-09 9.86945070774927e-09 3.995108850224878e-08 1.1357608047329731e-07 7.029191686584833e-08 4.5987866250857084e-08 2.812749056060922e-08 1.6522646628344126e-08 9.420040213951527e-09 5.238728341361997e-09 2.8449672133477577e-09 1.5056198422553521e-09 7.722314417276841e-10 3.7996578923828344e-10 1.7624412242483897e-10 7.480192503589639e-11 2.7541909865654556e-11 7.907417853603907e-12 1.341692099005682e-12 2.2322310482703335e-18 1.833348198051537e-27 1.8061587848186106e-27 1.8451419506315303e-27 2.0592642551516065e-27 2.5826150423335347e-27 3.681175678889569e-27 5.956116995849225e-27 1.0838683260909188e-26 2.2164862114345733e-26 6.552781774702588e-26 9.377557536290467e-25 3.488776736415693e-23 1.3226323528938031e-21 4.5178432507316606e-20 1.3608786058873091e-18 3.575588181763375e-17 8.259650303182469e-16 1.678758516158653e-14 2.864192008615786e-13 4.193079193086962e-12 5.020328202803155e-11 4.795688855786544e-10 3.3661114122762256e-09 1.5558544438470702e-08 4.3212860590341584e-08 3.658335791819409e-08 2.3125498852635895e-08 1.4254636046990527e-08 8.413529059069665e-09 4.816578831661143e-09 2.6903047693498667e-09 1.470684194679401e-09 7.868572344740839e-10 4.106676492769773e-10 2.0740676700724795e-10 9.979109885689989e-11 4.44325142579944e-11 1.734296888210713e-11 5.320464887787384e-12 9.685504974864657e-13 1.6806488718385243e-18 1.5860117311138528e-28 1.5689255945554547e-28 1.6197420940433166e-28 1.840206822213947e-28 2.3678938387641767e-28 3.4910897256224826e-28 5.890064297111947e-28 1.1262915327523761e-27 2.4247703056687174e-27 6.9254843437654e-27 8.147410954927058e-26 3.1559317798677997e-24 1