# vtk DataFile Version 3.0
vtk output
ASCII
DATASET RECTILINEAR_GRID
DIMENSIONS 41 41 1
X_COORDINATES 41 double
0 1 2 3 4 5 6 7 8 9 10 11 12 13 14 15 16 17 18 19 20 21 22 23 24 25 26 27 28 29 30 31 32 33 34 35 36 37 38 39 40 
Y_COORDINATES 41 double
0 1 2 3 4 5 6 7 8 9 10 11 12 13 14 15 16 17 18 19 20 21 22 23 24 25 26 27 28 29 30 31 32 33 34 35 36 37 38 39 40 
Z_COORDINATES 1 double
0
POINT_DATA 1681
FIELD FieldData 1
Concentracao 1 1681 double
1.0 1.0 1.0 1.0 1.0 1.0 1.0 1.0 0.9999999999999999 0.9999999999999999 0.9999999999999999 0.9999999999999998 0.9999999999999997 0.9999999999999996 0.9999999999999998 0.9999999999999998 0.9999999999999999 0.9999999999999999 0.9999999999999999 0.9999999999999999 1.0 1.0 1.0 1.0 1.0 0.9999999999999998 0.9999999999999998 0.9999999999999999 0.9999999999999999 0.9999999999999998 0.9999999999999999 0.9999999999999998 0.9999999999999998 0.9999999999999998 0.9999999999999999 0.9999999999999997 0.9999999999999996 0.9999999999999989 0.9999999999682234 0.9999920574547546 0.00024800978799924955 1.0 1.0 1.0 0.9999999999999999 0.9999999999999996 1.0 1.0000000000000002 1.0000000000000002 1.0000000000000002 1.0 1.0000000000000002 0.9999999999999999 0.9999999999999998 1.0 0.9999999999999994 0.9999999999999991 0.9999999999999991 0.9999999999999992 0.9999999999999991 0.9999999999999991 0.9999999999999993 0.9999999999999991 0.9999999999999991 0.9999999999999988 0.9999999999999991 0.9999999999999988 0.9999999999999989 0.9999999999999989 0.9999999999999989 0.9999999999999991 0.9999999999999991 0.9999999999999991 0.9999999999999989 0.9999999999999989 0.9999999999999989 0.9999999999999989 0.999999999999999 0.9999999999999983 0.9999999999684644 0.9999920808839902 0.00024800978803696445 1.0 1.0 1.0 1.0000000000000002 0.9999999999999998 1.0 1.0 0.9999999999999997 0.9999999999999998 0.9999999999999996 0.9999999999999993 0.999999999999999 0.9999999999999991 0.9999999999999993 0.9999999999999993 0.9999999999999991 0.9999999999999991 0.9999999999999988 0.9999999999999987 0.9999999999999984 0.9999999999999982 0.9999999999999983 0.9999999999999982 0.9999999999999984 0.9999999999999984 0.9999999999999987 0.9999999999999987 0.9999999999999984 0.9999999999999984 0.999999999999998 0.9999999999999982 0.9999999999999982 0.9999999999999981 0.9999999999999981 0.9999999999999979 0.999999999999998 0.9999999999999979 0.9999999999999976 0.9999999999689287 0.9999921186143993 0.00024800978842241334 1.0 0.9999999999999999 1.0 1.0 1.0 0.9999999999999998 0.9999999999999997 0.9999999999999998 0.9999999999999996 0.9999999999999996 0.9999999999999992 0.999999999999999 0.999999999999999 0.9999999999999992 0.999999999999999 0.999999999999999 0.9999999999999986 0.9999999999999982 0.9999999999999978 0.9999999999999976 0.9999999999999971 0.9999999999999963 0.9999999999999958 0.9999999999999956 0.9999999999999948 0.999999999999994 0.9999999999999933 0.9999999999999927 0.9999999999999921 0.9999999999999915 0.9999999999999911 0.9999999999999906 0.9999999999999903 0.9999999999999907 0.9999999999999917 0.9999999999999932 0.9999999999999948 0.9999999999999959 0.9999999999693207 0.9999921311482052 0.00024800978867482254 0.9999999999911812 0.9999999999904964 0.9999999999887925 0.9999999999859157 0.9999999999816771 0.9999999999759541 0.9999999999686723 0.9999999999598007 0.9999999999493389 0.9999999999373076 0.9999999999237361 0.999999999908656 0.9999999998920952 0.9999999998740768 0.9999999998546187 0.9999999998337354 0.9999999998114361 0.9999999997877281 0.9999999997626178 0.9999999997361131 0.9999999997082252 0.9999999996789731 0.9999999996483915 0.9999999996165437 0.9999999995835478 0.9999999995496182 0.9999999995151452 0.9999999994808271 0.9999999994479086 0.9999999994185728 0.9999999993965302 0.9999999993881166 0.9999999994021995 0.99999999945501 0.999999999555375 0.9999999997050385 0.9999999998282697 0.9999999999231767 0.9999999999431666 0.9999920439744655 0.0002480097886079482 0.9999957702413313 0.9999956222831252 0.9999952852357086 0.9999947671744268 0.9999940917040716 0.999993287393674 0.9999923837523417 0.999991406265503 0.9999903752787648 0.9999893062762054 0.9999882105501523 0.9999870961880257 0.9999859687727066 0.9999848321528192 0.9999836888876856 0.9999825407050437 0.9999813887530755 0.9999802337988882 0.9999790764552149 0.9999779172280933 0.9999767567305579 0.9999755957480934 0.9999744355958939 0.9999732785628443 0.9999721285730995 0.9999709924623199 0.9999698822876414 0.9999688191025689 0.9999678397112534 0.9999670078585023 0.9999664363670864 0.9999663063370837 0.9999670124254024 0.9999687106758335 0.9999746461524683 0.9999811143919028 0.9999921875627047 0.9999972431053975 0.9999993259464212 0.999991676468971 0.00024800978794890013 0.05792744409728863 0.057703819764415 0.057104977158573364 0.0562091687416208 0.05510847948120581 0.05387878554651917 0.05257320981391572 0.0512244247489857 0.04984907954586154 0.04845964249458337 0.04706016840428396 0.04565421413720923 0.04424434496204938 0.04282957111930709 0.04141151295684218 0.03998971403551817 0.038564362473028926 0.037134291017180236 0.035699011750117325 0.034258037466435805 0.03281155754403944 0.03135777528702382 0.029895586642646087 0.02842458055448819 0.02694306268956278 0.025448086150506605 0.023938105222979705 0.0224090819706551 0.02085650426044232 0.019270932111791678 0.01764588393760384 0.01594564031676099 0.01422866795576914 0.011987935509842952 0.01226099479941442 0.9999613116728568 0.9999809761178512 0.9999939444228316 0.9999984635462096 0.9999909539978082 0.00024800978635498654 0.0016987709591468787 0.0016863251109329872 0.001653245360374879 0.0016046428758917123 0.0015470672968508855 0.0014864849051707126 0.0014271279785037598 0.0013707359423573452 0.0013171333764024269 0.0012653222638466426 0.0012143663177407742 0.0011638238427768277 0.0011136426008145175 0.0010639321169780267 0.0010149049109394385 0.0009667543172138063 0.000919595696780256 0.0008735395115635968 0.0008286925974278103 0.0007851360427671691 0.0007429307163869926 0.0007021323696433594 0.0006627734474194362 0.0006249171480138264 0.0005885786478723557 0.0005537725139214573 0.0005205245411574665 0.0004888353220611047 0.0004586876254114059 0.0004300373124761136 0.00040283805474070956 0.00037699026157793825 0.00035235803375020396 0.0003282222320485313 0.0005695837846957558 0.9999606538287225 0.9999811807425902 0.9999930354664162 0.9999982308583638 0.9999898364052209 0.0002480097832377623 3.333473743005548e-05 0.0012524173776254392 0.01116623860266349 0.049306222858614454 0.14129988480917124 0.296818738313219 0.4921453757432947 0.6808831064188177 0.8244817837964327 0.9120711981845921 0.9557820790126207 0.9743354857961467 0.9817197926588113 0.9850956227227627 0.9872073100940847 0.9888813799250953 0.9903285667573606 0.9916060536024115 0.9927388329723136 0.9937445370723201 0.9946376409942741 0.9954304537058078 0.9961334921046008 0.9967557567817051 0.9973050015857466 0.9977879063085148 0.9982102329098765 0.9985770043414041 0.9988926143318627 0.9991608774451197 0.9993852247999461 0.9995687580349084 0.9997141383523634 0.9998244166659016 0.9998998866106774 0.9999523802461991 0.9999427849770546 0.9997526944276559 0.9982838673214856 0.9719328446531578 0.0002479715358105408 1.0287980050326706e-05 0.0012289785761655813 0.011170412191613117 0.04954001503771735 0.14236970776480695 0.2997253498043434 0.4977930119548911 0.689410125245887 0.8351330952915688 0.9236402674830599 0.9672208141542342 0.9850257672692565 0.9914268413647774 0.9937952233475346 0.9949561581332145 0.9957552246053388 0.9964018718328478 0.9969474798514147 0.9974110473801866 0.9978048618900094 0.9981388388015715 0.9984213534805524 0.9986595632702789 0.9988595958414513 0.9990266947686988 0.9991652818308449 0.9992790317846659 0.9993708926644624 0.999443088210242 0.9994970777120311 0.9995334352006298 0.9995516000859767 0.9995491577108868 0.9995198315414997 0.9994541491910696 0.9992663155037915 0.9987167457476666 0.996618687284492 0.9854361828761741 0.9074334325272835 0.00024783947880384393 4.3985470827692175e-06 0.0011786926260514074 0.010836050118961332 0.04841324067932788 0.1400515136045583 0.296575513607264 0.4950139895794853 0.6882343297708072 0.8359650760899082 0.9260043809097832 0.970299951803822 0.9881811105213366 0.9943343348028123 0.9963535390326478 0.9971635770643026 0.9976402211429561 0.9979972382557801 0.9982836529819166 0.9985151923679126 0.9987010232787201 0.9988482156348552 0.9989625130922544 0.9990485704759278 0.999110070006901 0.99914977740786 0.9991695539093346 0.9991702743954409 0.9991516720381884 0.9991120100237086 0.9990474725824987 0.9989509684732787 0.9988097636429342 0.9985996878894929 0.9982739648566296 0.99771118666583 0.9965501386529639 0.9937101935077179 0.9855443094555173 0.9566795784096993 0.8240683343992781 0.0002475672350940377 2.176128664695532e-06 0.0011039340576725252 0.01027938912913266 0.04643274758016116 0.1356926827133305 0.28998970123794826 0.48784251657742495 0.6825596738143346 0.8328764645763969 0.925234917465395 0.9709060527025168 0.9893106763592528 0.9955101348986511 0.9973936365619462 0.9980271950627501 0.9983331304373732 0.9985348562739118 0.9986809879963352 0.9987849271926307 0.9988534065525423 0.9988911465714247 0.9989015878069206 0.9988870429196516 0.99884870827829 0.9987865727309667 0.9986992040421331 0.9985833488699575 0.9984332327355554 0.998239337290881 0.9979861847207285 0.9976482569197219 0.9971815461093584 0.9965058013896653 0.9954596041329008 0.993676403938533 0.9902726842892823 0.9829577613730487 0.9650380239168632 0.9137553149056392 0.7386965163064948 0.00024711836976295675 1.1720230618636804e-06 0.0010091193638100961 0.009546196724543266 0.04375820207481848 0.12964718238919445 0.2805497995986164 0.47708318617448414 0.6733796602859489 0.8269907587629979 0.9225210527948583 0.9702199290384601 0.9895303441813792 0.9959755768319937 0.9978341504379435 0.9983657421075818 0.998558960038999 0.9986526563581782 0.9986965203068702 0.9987021064452839 0.9986738645550488 0.9986141688605645 0.9985240031954794 0.998402980323986 0.998249164963155 0.9980587295872845 0.997825317846233 0.9975390135678058 0.9971846476138967 0.9967388410965072 0.9961649594719044 0.995403531499228 0.9943538651758054 0.992835407435883 0.990500631471725 0.9866349930386894 0.9796737158988513 0.9659435614338935 0.9359912599110032 0.8628030312327682 0.6590606987612436 0.0002464607402427112 6.675619848365546e-07 0.0008992243711498619 0.008673308008497898 0.04049960885287872 0.12210541719290956 0.26847197276852164 0.46293479466879967 0.6608705963883311 0.8185210186840604 0.9181450827958326 0.9685739621087518 0.9891845682184968 0.9960563634803731 0.9979682939066562 0.9984366966399681 0.9985406897982669 0.998541377883634 0.9984909772538276 0.9983993299931859 0.9982684171696153 0.9980979031969084 0.9978857563921787 0.997628085382807 0.9973186848271449 0.9969482695451614 0.9965032314144764 0.9959636038114115 0.9952998361477807 0.9944673494357823 0.993397191793349 0.9919792182574865 0.9900303961640673 0.9872323508115904 0.9830020600383291 0.9762164733655571 0.9645946919486468 0.9432212375620675 0.9007259908080133 0.808570436395102 0.588299866646639 0.00024556595116540517 3.955514346937031e-07 0.0007798343925261971 0.007698549934965045 0.03676575095258627 0.11323988490242586 0.253907126506616 0.445414856477271 0.6449355303514613 0.8073583119108223 0.9120726579218819 0.9660250940002879 0.9883835414101588 0.9958765453669826 0.9979127470451278 0.9983421429722082 0.9983646093058495 0.9982719995490938 0.998120660591045 0.9979186387484891 0.9976649493749935 0.9973558546520158 0.9969853903257466 0.9965449956979415 0.9960226624144871 0.9954016072662005 0.9946581733335446 0.9937585120980729 0.9926533350450655 0.9912692912846347 0.9894944500210587 0.9871531057090641 0.9839600755271121 0.9794352529663314 0.9727383425587196 0.9623361915865666 0.9453071383177245 0.9158010763617935 0.8614257568860393 0.754225309487575 0.5264544973174242 0.0002444072361597659 2.412291947629847e-07 0.0006566813159841534 0.006661962193415439 0.03267481510029131 0.10323455699611186 0.2369841311044861 0.4244667846461864 0.625330784486764 0.7932062087324586 0.9040990801365595 0.962493059537913 0.9871345507976365 0.9954811858033694 0.9977194395148429 0.9981290362428287 0.9980695967388249 0.997874780639255 0.997607025343529 0.9972723066791721 0.9968658880133079 0.996379579375844 0.9958022571545598 0.9951191801211057 0.9943107117736382 0.993350266555817 0.9922012150345477 0.990811980391943 0.9891084641881014 0.9869817865503026 0.9842683986300487 0.9807164815208214 0.9759274952045399 0.9692521100758194 0.9595986614563414 0.9450688016383777 0.9222396038649413 0.8846837323610681 0.8197697378155615 0.7014001916065264 0.47251530041246786 0.00024295812329190862 1.5022978303647194e-07 0.0005353673848542794 0.00560486603574198 0.028357002983804374 0.09230816184729042 0.21787455902158437 0.40003279137300446 0.6017276218489224 0.7756284511733785 0.8938756520115562 0.9577946347858003 0.9853812147761014 0.9948746455805283 0.9974115969586337 0.9978218208870189 0.9976760238484695 0.9973646236246367 0.9969587527263788 0.9964618865778332 0.995864358035546 0.995152142900348 0.99430733005572 0.9933071811521957 0.9921223241483753 0.9907139870019583 0.9890297539093468 0.9869968867442054 0.9845123116528932 0.9814267053478017 0.9775194823795308 0.9724576184616506 0.9657274867986555 0.9565177603254907 0.9435140553125767 0.9245272158763064 0.8957994154837249 0.8506611633810236 0.7768346566909472 0.6507612397330644 0.4251656069982293 0.0002411901054156785 9.492562031236743e-08 0.0004210508913866929 0.004569022043043265 0.023955334348792885 0.08072274091520235 0.19681322477562654 0.3720719340174996 0.5737281629014748 0.7540510199693888 0.8809092679099764 0.9516399539638507 0.983006242147679 0.9940318273597384 0.9969969812920114 0.9974350862472244 0.9971971387571235 0.9967510770536512 0.9961804669982932 0.9954856134605266 0.9946503575291182 0.9936528625758454 0.9924663562744367 0.9910578685292321 0.9893860021136832 0.9873974307327554 0.9850214222620733 0.9821615818068317 0.9786832023399515 0.9743942288946781 0.9690153644377322 0.9621336760161447 0.9531275169703314 0.9410432229106672 0.9243877959817188 0.9007700205453465 0.8662646681783517 0.8142469654060448 0.733194586513798 0.6023826616455463 0.38313268346090557 0.00023907049446495054 6.050281294950988e-08 0.00031807118894552796 0.003593619495439291 0.01962047585075335 0.0687881728467122 0.17413268010576338 0.34063171815532794 0.5409129731926225 0.727758823046417 0.86452278351652 0.9436006653895591 0.9798195944061251 0.992897225579221 0.9964719812633781 0.9969789493318572 0.9966442872728178 0.9960431155019722 0.9952769311284474 0.9943420422855116 0.9932134937746508 0.9918589992176642 0.9902400901689138 0.9883107808529351 0.9860149678157606 0.9832824903249031 0.980022609110401 0.9761140588008373 0.9713903486859758 0.9656174323683822 0.9584607116951127 0.949434787918396 0.9378252708312546 0.922565436404544 0.9020375804137947 0.8737423000963224 0.8337397230855975 0.7756775053963653 0.6890535093814765 0.5560176649472933 0.34529949510152264 0.00023655968710683826 3.868115759011514e-08 0.0002295952831366858 0.0027131624648322424 0.015504318025202177 0.05686267101331741 0.15029055282487314 0.3059022427972835 0.5028989508033909 0.6959025310743668 0.8438296067110829 0.9330686034254856 0.9755300633145194 0.9913740518636879 0.9958207176143846 0.996461309702278 0.9960298082483795 0.995252027168921 0.9942558693285058 0.9930325312237764 0.9915450229631324 0.9897467173069391 0.9875834204467209 0.9849923397492311 0.9818996361899864 0.9782162749259622 0.9738308908512799 0.9685984960423251 0.9623239689942534 0.954736985620832 0.9454566583294707 0.9339390491188136 0.9194000169790215 0.9006967177906533 0.8761459651053015 0.8432319072105875 0.7981348776080629 0.7349473111334918 0.644342405234648 0.5112540571208419 0.31072299167879763 0.00023360686626004088 2.466956039652473e-08 0.00015739477039871804 0.0019543043210775123 0.011750207713878736 0.04534113190420915 0.12588961110907174 0.2682860258212834 0.4594067436697064 0.6575123307521813 0.8176681215954043 0.9191807839244289 0.9696923645427598 0.9893023433862966 0.9950092272232854 0.9958879755360561 0.9953687987241329 0.9943937096688715 0.9931304511973786 0.9915638512146603 0.9896399514998415 0.9872919770311219 0.984443973165005 0.9810107880789699 0.9768969524211922 0.9719928926972118 0.9661681291037447 0.9592592805355702 0.9510511799948879 0.9412495986409741 0.9294438704203243 0.9150534726190985 0.897254361177018 0.8748708383156079 0.8462149807504266 0.8088410179907455 0.759162414003081 0.6918425251220269 0.5988061590894154 0.4675997876181898 0.27861191932787593 0.00023014509715556553 1.5611276643519744e-08 0.00010175442779354377 0.0013333359050869862 0.00847931567072086 0.0346335561474455 0.10168624657034492 0.22848475081767233 0.4104003618888232 0.6115791694117719 0.7845719616840328 0.9007171102691713 0.9616258212356492 0.9864182922258078 0.993972555858918 0.9952607436264723 0.9946803578656357 0.9934909489262703 0.9919223715611343 0.9899516538725491 0.9875004922593048 0.9844727176955403 0.9807609353560862 0.9762491410532167 0.9708143730724486 0.9643258112982871 0.9566397035740483 0.9475863316178939 0.9369488389002615 0.9244326162506308 0.909623823961653 0.8919367021101291 0.8705440501041761 0.8442833659762905 0.8115228500251046 0.7699630300588826 0.7163410293171031 0.6459756040964634 0.5520621133739148 0.4245457174044194 0.24831999454406659 0.0002260829340905229 9.753543227326271e-09 6.15418771268138e-05 0.0008544071265530838 0.005776556565235078 0.02512873884356182 0.07856986634746911 0.18757643277551547 0.3562630150314244 0.5571853639092602 0.7427378436503083 0.8759655543118514 0.9502825384242807 0.9822808266155452 0.9925889523855385 0.994571646154081 0.9939879321131737 0.9925758094682718 0.9906655795315307 0.9882255306439547 0.9851416990391844 0.9812734947835337 0.9764656082996978 0.9705564628364233 0.9633866922056954 0.9548052855084096 0.9446685863410869 0.932826983403324 0.9190984481075563 0.9032287611777732 0.8848433765708843 0.8633918477633562 0.8380855937756411 0.8078208555504908 0.771075318059626 0.7257584016863059 0.6689977644823457 0.5968147255810828 0.5036436762060291 0.3815940581261057 0.21931888544568506 0.00022129175877092248 5.989509645620707e-09 3.451474132386385e-05 0.0005093496182902949 0.0036780856548539165 0.017143120860142837 0.05749733248512339 0.1470637376670897 0.29803757221064675 0.4937894106744757 0.6901103225992281 0.8425681355879084 0.9340386087408151 0.9761415035128448 0.9906280400159444 0.9937895910209416 0.9933178827929682 0.9916919790934267 0.9894112841615255 0.9864368991466331 0.9826017704486513 0.9776953748855661 0.9714856398891787 0.9637384475976881 0.9542418198464829 0.9428287975948504 0.9293861192075422 0.9138403045024058 0.8961138741873381 0.8760658799015976 0.8534222733817801 0.8277169131588215 0.7982382826488458 0.7639768170182644 0.7235580706286728 0.6751421318385057 0.61628402138776 0.5437171539094787 0.4530436888896305 0.33828165857867776 0.19118482450153648 0.00021558376494296776 3.6016485882761184e-09 1.7781360173169136e-05 0.00027953009924066994 0.0021640090400257316 0.010865578148418549 0.03936969205329538 0.10882066323035673 0.23766848306521943 0.42166786378361015 0.6246342396791236 0.7973950300947794 0.9103834237495457 0.9667069687566452 0.9876464670800438 0.992830182513 0.9926940131509232 0.9908960816386002 0.9882335399259012 0.984669990977121 0.9799588063663957 0.9737765254426053 0.9657605256600486 0.9555506988555686 0.9428502016998298 0.9274854459800413 0.9094435049641254 0.8888416273977714 0.8658506002412049 0.8405643765047127 0.8128937314061417 0.7824973275599524 0.7487550990944707 0.7107581762179365 0.6672877673835799 0.6167686873286665 0.5571860268291646 0.4859560813261561 0.39974393222081933 0.2942014119501538 0.16358708219548268 0.0002086725980909797 2.1145218870304876e-09 8.334035944688734e-06 0.00013965318514979122 0.0011618200002190924 0.006311336695002351 0.024862905049037494 0.07489750253910599 0.1781385681734738 0.3425543735590146 0.544883271201595 0.7365936437043057 0.8755065198148415 0.9517170006096458 0.9827711280210667 0.9914861064258853 0.9921215409828722 0.9902554173244458 0.9872335998309268 0.9830556450199213 0.9773584134373422 0.9696322270857131 0.959281009129088 0.945707322306294 0.9284511778113989 0.9073588887473096 0.8826553130655315 0.8549372021945617 0.8248877190972398 0.7930529435576574 0.7596109421956492 0.7243211865555675 0.6866001010288033 0.6455841687462803 0.6001772039663013 0.5490403344167194 0.49055757168982095 0.4227644451371497 0.34324944615463393 0.24901538770545292 0.13627868374174748 0.00020009419397639725 1.2107026812807083e-09 3.732539245168798e-06 6.627633100856646e-05 0.0005891027881812506 0.003444520773303317 0.014696876170037086 0.04817475941142127 0.12497843823829707 0.26196539220570636 0.45197468434915855 0.6559258435518468 0.8237193008299647 0.9272287388955266 0.9742441704244935 0.9892610594568948 0.9915453806987129 0.9898372035551559 0.9865383935314894 0.9817834915346918 0.9750521415449858 0.9655300825393942 0.952189703173638 0.9339427222369651 0.9099733648395067 0.8801324914804242 0.8453537482841607 0.8071709500308264 0.7675481878520627 0.7277544947911537 0.6881553124313673 0.6484146993893559 0.6077477646064021 0.5652020135232856 0.5197156209045388 0.4701275533853573 0.4151590607419445 0.3533728970153577 0.28311823224114363 0.20246014316825028 0.10908862450884406 0.00018902989209779883 6.744985186038129e-10 1.6073844534866167e-06 3.0083649747101408e-05 0.0002842928083356729 0.0017810784090311299 0.008197716134528805 0.029146949850047277 0.08232941822758634 0.1881766408261696 0.35341462249742717 0.5548910688316729 0.7451643808236622 0.8818764363538671 0.9552774716190657 0.9837681961741878 0.9905519409926785 0.9896777159303066 0.9862822926668936 0.9810967440825655 0.9734343895118245 0.9620150992037261 0.9450127509345931 0.9202604780654084 0.8859595937302923 0.8420727533314011 0.7904820044674566 0.7365540127673837 0.6840163572188936 0.6352867311477922 0.590516375405855 0.5482005309529931 0.5069862217055185 0.4656189717096012 0.4229753422409355 0.37800743213037175 0.32970340247742375 0.27704990487019604 0.2189835314572009 0.15436264868244753 0.08191137758289947 0.00017383045456122612 3.642246345486837e-10 6.615353342108597e-07 1.29879395659393e-05 0.000129915517374127 0.0008685286329044914 0.004296605250711033 0.016519760106368703 0.050699048565775416 0.12628490402903036 0.25862661378496665 0.44157150743877926 0.640092469343139 0.8072367384013124 0.9151779829255342 0.9678120398869678 0.9860990466899021 0.988988679184834 0.9863791534733056 0.9811832560743966 0.9730166825895564 0.9600386378037663 0.9391581585064737 0.9057753576909918 0.8552045720159284 0.7859547083243998 0.707162354874974 0.6246818705117784 0.5548434257768762 0.5005443018136175 0.45493051248938193 0.4147541503358568 0.3776367383110127 0.3419693858578942 0.30654640301649844 0.2704255279633065 0.23282699796947465 0.19306721353953601 0.15052258503645494 0.1045927951886323 0.054678211445604245 0.00015034336857580615 1.8958387952187818e-10 2.5833030290040057e-07 5.297167952741664e-06 5.58640289471478e-05 0.00039709897950912607 0.0021045109019514224 0.00872553578526788 0.029032655696905153 0.07871935234356361 0.17587738711915726 0.3275178734421947 0.5158339069066421 0.7008057042241477 0.8438135399417496 0.9305412239698218 0.9711758288880568 0.9846928564550368 0.9858533177564327 0.9816924074834364 0.9737206340120838 0.9604698317040968 0.93739562745499 0.895186374599624 0.8190882489538553 0.6972186840939631 0.5335437063544024 0.4127767394187799 0.3448887761366564 0.29847451553665477 0.2637048888458264 0.2351843244269244 0.21030562324333443 0.1874591403963416 0.1656298201658634 0.14411832668361513 0.12242017754479867 0.10015350597973142 0.07701865638408387 0.0527693698076265 0.027194636798821968 0.00010464426460818417 9.442129998038222e-11 9.488375652412611e-08 2.0241149339487587e-06 2.2427452853183555e-05 0.00016897230214330965 0.0009566544004534092 0.004266485932940918 0.015359780776221415 0.04527216549759161 0.1103182116804663 0.22438049508911942 0.3855378132112259 0.5686950387343639 0.7361509306833766 0.859778545870141 0.9336193083891468 0.968784068671031 0.9808759778026711 0.9812471067719944 0.9750459831102746 0.9626490964353291 0.9400671400926178 0.8965959596843587 0.8043235116336682 0.544028162805881 0.0019786908723681894 0.0013653085160420062 0.0014393274158624487 0.0013827105537882478 0.0013458221115797522 0.001303146363091486 0.0012551584880915604 0.001196762117497815 0.0011241199036337336 0.001033625019816898 0.0009219975842966904 0.0007867695405311694 0.0006264215918666804 0.0004407408620088484 0.00023109153378327678 4.849221778224008e-07 4.4564919583316105e-11 3.2433730971154725e-08 7.172625662237839e-07 8.32465442247499e-06 6.629814171817358e-05 0.0004000180560601419 0.001914893200284909 0.007445589217147624 0.023824237550398347 0.06327525350600212 0.14063570789024693 0.26422568905038585 0.42531817008995754 0.59720794012605 0.7485140451971326 0.8593616938764197 0.9272720214929964 0.9616326529487115 0.9744902146221044 0.974570374348884 0.9656094198754774 0.9459143031575461 0.9067383074860818 0.8189012315224691 0.5829438901347014 0.0010475030762617773 0.00010206434503428852 0.00010151903382291497 0.000100875499762723 0.00010012461322123306 9.928579434686873e-05 9.835888075891907e-05 9.732206260806493e-05 9.614089863987747e-05 9.476568209662863e-05 9.312624772098668e-05 9.111625909065049e-05 8.854772548911146e-05 8.497916212296477e-05 7.866038011900266e-05 1.1497406266580715e-08 1.9686939737712556e-11 1.0182999159776924e-08 2.3271172235338746e-07 2.821777672588788e-06 2.3701496013211948e-05 0.00015210530385303516 0.0007802381492337125 0.0032718353073652377 0.011352394153607797 0.03283927796513541 0.0797561306704477 0.16403285098448098 0.28900465901477823 0.4428196712780174 0.6014764054456401 0.7402367891250308 0.8442710165904747 0.9115590514408134 0.948607827692231 0.9641333994255882 0.9646741992353826 0.952158565434952 0.9215206746407965 0.856000267207787 0.6466627062590398 0.6466385666705721 0.6466038798641738 0.6465556317394424 0.6464975344544749 0.6464300482943561 0.6463536094863696 0.6462679871646159 0.6461723220220588 0.6460648282532679 0.6459421941163106 0.6457982933350498 0.6456211745576809 0.6453844755064179 0.6450138462291115 0.644109816806714 7.757504052912091e-05 8.008905872446724e-12 2.8878437412465553e-09 6.800645807683801e-08 8.596955387560528e-07 7.60209205739673e-06 5.1814386088107925e-05 0.00028444562696344723 0.0012850985814120157 0.004831113755703166 0.015212702304851998 0.04036609508647201 0.09092877630590004 0.17564912483218348 0.2947650564444853 0.43678198427249726 0.5821936134319373 0.7117235452190114 0.8132508311220474 0.883668023576584 0.9262979620619073 0.9467282096269009 0.9492139534649475 0.9335667285707874 0.8903718898487736 0.7832588764715288 0.7275200473627228 0.7159541541197089 0.7097683884779683 0.706213339591247 0.7037473190728712 0.7017415047411208 0.6997916210216967 0.697588423225017 0.6948428648445051 0.6912632339734673 0.6865658583684773 0.6805253474624023 0.6730496631467187 0.6642299920405085 0.6540734384733083 7.769659570156233e-05 2.9363504850319705e-12 7.238308638622862e-10 1.7520327772903326e-08 2.3050409258638016e-07 2.1431478663031692e-06 1.5498046744349944e-05 9.09840586195282e-05 0.00044261378371482384 0.001802155472542418 0.006175912311906508 0.017904140758002278 0.044189029563621 0.09368550889476798 0.17257686773174094 0.2801550611082886 0.4072798047624515 0.5392094947443123 0.6609756664416483 0.7619558758820683 0.8375282946558099 0.8879957946575194 0.915881826601706 0.9232822100442609 0.9083905422227914 0.858856228602801 0.8207420894348386 0.7971735766108372 0.7852158863020055 0.7776369994619409 0.7722718518165406 0.7678221095253407 0.7634777245554647 0.7585844915901039 0.7525287581636051 0.7446905832583999 0.7344705122042605 0.7213973461544892 0.705308654606786 0.6864987463155038 0.6654847314830064 7.779800718454775e-05 9.418806162554543e-13 1.5568776424836047e-10 3.864153867666361e-09 5.284586408399705e-08 5.161785029188585e-07 3.958409977966181e-06 2.484578375204086e-05 0.00013014231139153143 0.000573975808572703 0.0021412869049424275 0.006784445677443777 0.018355987590577213 0.042749124654104756 0.08657183625182384 0.15438467863621044 0.24591088906973627 0.3550720251114666 0.47157537366043023 0.5840865138849177 0.6832530384533172 0.763298051825333 0.8219840722695684 0.8592152606289913 0.8755018258256234 0.8690773259251273 0.8552998530616446 0.8428583346405428 0.8334907681975069 0.8266858413676047 0.8213149318769242 0.8165740730029573 0.8117863980549557 0.8063116184974742 0.7994408397991805 0.7903178452111916 0.7779069012715625 0.7610823313308245 0.7389438261585335 0.7113329005057544 0.6789001611064458 7.789250071906789e-05 2.53235069475181e-13 2.7545331448947932e-11 6.993805175302068e-10 9.934660525070556e-09 1.0191184834346004e-07 8.288035756443469e-07 5.563772623614049e-06 3.1397528577290706e-05 0.0001501021391871493 0.0006101089378927698 0.0021146615382343567 0.006278115327680387 0.016078171921254936 0.0358457420553073 0.07036635760128476 0.12319151399575809 0.1949139111272 0.28236052529855593 0.379148419360875 0.47728758869632654 0.5690516694529296 0.6483565756433116 0.7113928495899062 0.7563637285562047 0.7831730442043533 0.796778324820589 0.8029713388195397 0.8052919424284413 0.8057626279033177 0.8053339023961493 0.804472249783592 0.8033774480068538 0.8020542489653227 0.8002545601987711 0.7973069448828736 0.7918554425361305 0.7816246920864237 0.7635363410191027 0.7347256334188683 0.6942810173063573 7.797997206749057e-05 5.3353624013955276e-14 3.7520775420224445e-12 9.720395911771025e-11 1.4337810006710282e-09 1.5449852089880415e-08 1.3331916635186455e-07 9.58070567171403e-07 5.831707680804501e-06 3.026425280343976e-05 0.00013423568179080469 0.0005097877646257547 0.0016634901234916198 0.004692601662356869 0.01