# vtk DataFile Version 3.0
vtk output
ASCII
DATASET RECTILINEAR_GRID
DIMENSIONS 41 41 1
X_COORDINATES 41 double
0 1 2 3 4 5 6 7 8 9 10 11 12 13 14 15 16 17 18 19 20 21 22 23 24 25 26 27 28 29 30 31 32 33 34 35 36 37 38 39 40 
Y_COORDINATES 41 double
0 1 2 3 4 5 6 7 8 9 10 11 12 13 14 15 16 17 18 19 20 21 22 23 24 25 26 27 28 29 30 31 32 33 34 35 36 37 38 39 40 
Z_COORDINATES 1 double
0
POINT_DATA 1681
FIELD FieldData 1
Concentracao 1 1681 double
1.0 1.0 1.0 1.0 1.0 1.0 1.0 1.0 0.9999999999999999 0.9999999999999999 0.9999999999999999 0.9999999999999998 0.9999999999999997 0.9999999999999996 0.9999999999999998 0.9999999999999998 0.9999999999999999 0.9999999999999999 0.9999999999999999 0.9999999999999999 1.0 0.9999999999999999 0.9999999999999986 0.9999999999999916 0.9999999999999553 0.999999999999778 0.9999999999989704 0.9999999999954985 0.9999999999813058 0.9999999999255706 0.9999999997122684 0.9999999988998226 0.999999995721018 0.9999999823366147 0.9999999174231349 0.9999995177315398 0.9999959892175567 0.9999461988476499 0.9988245553738552 0.9646936559875554 2.4327319619759783e-05 1.0 1.0 1.0 0.9999999999999999 0.9999999999999996 1.0 1.0000000000000002 1.0000000000000002 1.0000000000000002 1.0 1.0000000000000002 0.9999999999999999 0.9999999999999998 1.0 0.9999999999999994 0.9999999999999991 0.9999999999999991 0.9999999999999992 0.9999999999999991 0.9999999999999991 0.9999999999999993 0.9999999999999989 0.9999999999999969 0.9999999999999868 0.9999999999999356 0.9999999999996894 0.999999999998581 0.9999999999938851 0.9999999999750173 0.9999999999025357 0.9999999996330524 0.9999999986450885 0.9999999949639216 0.9999999803272813 0.9999999132129663 0.9999995183621352 0.9999960925414039 0.9999476644946576 0.9988425639600707 0.9648916693149672 2.4329948018449415e-05 1.0 1.0 1.0 1.0000000000000002 0.9999999999999998 1.0 1.0 0.9999999999999997 0.9999999999999998 0.9999999999999996 0.9999999999999993 0.999999999999999 0.9999999999999991 0.9999999999999993 0.9999999999999993 0.9999999999999991 0.9999999999999991 0.9999999999999988 0.9999999999999987 0.9999999999999984 0.9999999999999982 0.9999999999999974 0.9999999999999931 0.9999999999999691 0.9999999999998502 0.9999999999993 0.9999999999969218 0.9999999999872834 0.9999999999504988 0.9999999998177477 0.9999999993619393 0.999999997854573 0.9999999929230335 0.9999999759963605 0.999999908421019 0.9999995392151777 0.9999964059136336 0.9999506711525029 0.9988751908376088 0.9651880139904456 2.4333272904092817e-05 1.0 0.9999999999999999 1.0 1.0 1.0 0.9999999999999998 0.9999999999999997 0.9999999999999997 0.9999999999999993 0.9999999999999993 0.999999999999999 0.9999999999999988 0.9999999999999986 0.9999999999999986 0.9999999999999981 0.999999999999998 0.9999999999999973 0.9999999999999963 0.999999999999995 0.9999999999999933 0.999999999999989 0.9999999999999762 0.9999999999999267 0.9999999999997176 0.9999999999988332 0.9999999999952613 0.9999999999815972 0.9999999999323363 0.999999999765497 0.9999999992363868 0.9999999976723832 0.9999999933811103 0.9999999824061049 0.9999999550774334 0.999999877132757 0.9999995474181269 0.9999967642482751 0.9999546774586455 0.9989082371247969 0.9653564907076299 2.4336482634849802e-05 0.9999999999906117 0.9999999999898771 0.9999999999880498 0.9999999999849569 0.9999999999803796 0.9999999999741577 0.9999999999661648 0.9999999999562963 0.9999999999444454 0.9999999999304784 0.9999999999141999 0.999999999895314 0.9999999998733732 0.9999999998477115 0.9999999998173466 0.999999999780833 0.9999999997360323 0.9999999996797411 0.9999999996070491 0.9999999995101524 0.9999999993760403 0.9999999991817283 0.9999999988840448 0.9999999983972658 0.9999999975436734 0.9999999959447535 0.9999999927863007 0.9999999863294875 0.9999999729598097 0.9999999455424683 0.9999998912304541 0.999999790547145 0.9999996228094689 0.9999993907365463 0.9999991333527066 0.9999987827454097 0.9999966116735173 0.9999575405963568 0.9989195769162361 0.9649863959318237 2.4338323373377314e-05 0.9999955332560728 0.9999953757781403 0.9999950176312934 0.9999944665059283 0.9999937460336384 0.9999928845378336 0.999991910651854 0.9999908478651214 0.9999897130332634 0.9999885162329425 0.9999872608621743 0.9999859438608012 0.9999845553036599 0.9999830776855279 0.9999814842595245 0.9999797366604013 0.9999777812334788 0.9999755438707213 0.9999729230269553 0.9999697797761553 0.9999659247278648 0.9999610997186978 0.9999549540990513 0.9999470135247603 0.9999366395441421 0.999922981173477 0.9999049252608732 0.9998810604513225 0.9998497033189131 0.999809096346921 0.9997580336236055 0.9996972232672473 0.9996332256988689 0.9995772859797585 0.9995955255758564 0.9996534981617126 0.999830702753695 0.9998914927873014 0.9988439974231548 0.9635786737819206 2.433713180248619e-05 0.014403831502756842 0.014308901090047389 0.014077477925581795 0.013739693361642179 0.013330736002003676 0.012879635793158655 0.012406841406926918 0.011925069638772563 0.011441271289155725 0.010960198394321658 0.010483890626538294 0.01001386286174166 0.009551139182112306 0.009095820079220824 0.008648500560978063 0.00820928076117399 0.007778377198591171 0.007355717038987308 0.006941380483721486 0.006535450429393642 0.006138152795226807 0.0057493400648774215 0.005369032071924113 0.004997408064882415 0.004634449309482208 0.004279982221589559 0.003934169548896574 0.003596869924295137 0.003268045279252185 0.0029471350635813845 0.0026344247687388423 0.0023262246936162005 0.0020337141066706426 0.0016850955376875572 0.0017227171228572497 0.9995935375008813 0.9997050621124481 0.9998151599416991 0.9986472004419713 0.9602982289854807 2.4330077473713343e-05 0.0001039720683958635 0.0001026596238708314 9.948413437856907e-05 9.4914439216966e-05 8.948850898496168e-05 8.364781897128179e-05 7.770609771382116e-05 7.185196799562718e-05 6.619197738082927e-05 6.0783198433767164e-05 5.5651540634486967e-05 5.080754475874441e-05 4.625176744406789e-05 4.197816323935174e-05 3.798078876656091e-05 3.425290291189072e-05 3.0787500603255086e-05 2.7584539662739513e-05 2.4657682676669604e-05 2.2043024049091998e-05 1.980906378206731e-05 1.8059385395814743e-05 1.691765234965635e-05 1.6494539933136143e-05 1.6838945882699752e-05 1.7904578822892882e-05 1.9548854282522902e-05 2.1568597431147692e-05 2.3755912176391156e-05 2.594201196073403e-05 2.8014510080777827e-05 2.990515185753789e-05 3.157147322051316e-05 3.296030578477968e-05 6.949906763002625e-05 0.9995300778657753 0.9996519245607138 0.9997408191334743 0.9982025844676278 0.9542843140977023 2.4312495781500628e-05 5.02223738378084e-07 4.90058943246594e-07 4.6289566034101046e-07 4.261366011957468e-07 3.8498183425623105e-07 3.431786404453937e-07 3.030288534155587e-07 2.660981854960564e-07 2.3683324821452657e-07 2.466822530471715e-07 5.050496157263795e-07 2.2088044873340726e-06 1.1240046091151563e-05 5.2549783052526996e-05 0.00021765980465165288 0.0007968563584984617 0.002584467035059729 0.007445813931826385 0.019102539066884135 0.043747871713694354 0.0896576621289636 0.1648989840782612 0.2731417096085184 0.4094147890042096 0.558977229946506 0.7014312983006884 0.8186241025043658 0.9015534543337437 0.9519514096794551 0.9783780223519206 0.9905589485950048 0.9957050450529 0.997841353879669 0.9987796035041233 0.999226600007868 0.9994299773949353 0.9993751180661617 0.9984995445496581 0.9922562313828082 0.9194121509207154 2.424248646472984e-05 4.714714778839612e-08 4.5808170311294935e-08 4.304525111478057e-08 3.9476717159551244e-08 3.563589370273264e-08 3.185647098139215e-08 2.8338598609846104e-08 2.547940714224357e-08 2.647823747043329e-08 5.675589386040695e-08 2.881744336775891e-07 1.7139918233673407e-06 9.272293424096629e-06 4.416185013416949e-05 0.00018512816048289087 0.0006852735662837438 0.002247127513374636 0.006546568845719273 0.01698791179878463 0.0393608940153259 0.0816335664212285 0.15197340236338125 0.25483800800322337 0.3866735475626044 0.5342400475778423 0.6779048003165006 0.7990473544293625 0.8872134181468924 0.9425472593371085 0.9726550695202943 0.9871064895596452 0.993448538072599 0.9961294824834117 0.9972437015334418 0.9976510726837361 0.99739759453117 0.9962008704804513 0.9914479178354957 0.9695246441638984 0.849405903988895 2.4061536593516462e-05 6.709297336702291e-09 6.498306807010407e-09 6.088661518196136e-09 5.580300196596331e-09 5.051789083562037e-09 4.547956188350103e-09 4.10737655299309e-09 3.975208314375969e-09 6.488788763310111e-09 3.060135890674057e-08 2.065125848437615e-07 1.299065524064885e-06 7.173906557087817e-06 3.470733667590037e-05 0.00014767282660517564 0.0005547484328315254 0.0018462360030350165 0.005459462490375354 0.014382718123901728 0.033841293601262555 0.07129664913173679 0.13487627851739284 0.22989244868713546 0.35461470160956404 0.49799262347866263 0.6418533421197694 0.7674201343341045 0.8625309852565495 0.9250727652727154 0.9609963530127339 0.9793131669012975 0.9878365671982439 0.9915189114889594 0.9928545089984235 0.9927177137939266 0.9909433296293846 0.9858231260356304 0.9718044401219182 0.9277281543442242 0.7611442472089659 2.371710059096891e-05 1.1602023006457277e-09 1.1210040225771396e-09 1.0487533763456357e-09 9.624274006701184e-10 8.757591042265592e-10 7.964267525250653e-10 7.398926463232183e-10 8.659575222535243e-10 2.754615821203937e-09 1.948128762346452e-08 1.4273873072865032e-07 9.224130803437187e-07 5.195735100548807e-06 2.5609411751850224e-05 0.00011096888890180717 0.00042445874845649454 0.0014381982736037715 0.004329865076015362 0.011614774697172075 0.027833549898056177 0.05974537003029013 0.11520615512684697 0.20024793775498262 0.315105328602922 0.4514418842008782 0.5933259586612084 0.7224864927396444 0.8252166850267488 0.8967162363499939 0.9405499947341575 0.9645412620544883 0.9764445190972123 0.9816780065844635 0.9831091427434442 0.9816735113018723 0.9766562784540596 0.9650826316245071 0.9381693757644112 0.8694610476155951 0.6702503173243228 2.3161310351518777e-05 2.2488642263708856e-10 2.168797227511378e-10 2.0280392973972624e-10 1.8660865380895545e-10 1.7097288771724575e-10 1.5758576811173438e-10 1.5461157254656825e-10 2.5932237445289785e-10 1.4586241650403502e-09 1.2125803137395834e-08 9.246608360445965e-08 6.125831958516909e-07 3.5295510660221925e-06 1.778166162990596e-05 7.871609369800527e-05 0.0003074715633728775 0.0010635792924262794 0.0032683676837114406 0.008948740677648653 0.021891812159282455 0.04798686384629447 0.09453948733761804 0.1679878548513273 0.270380295974114 0.3963457893999535 0.5329024547848343 0.6632114606233095 0.7726746556870877 0.8538191411142936 0.9072382742065506 0.9387859885621659 0.9555622241945833 0.9631610325184035 0.9647946622263335 0.961441359654108 0.9519563837114281 0.9320780516199305 0.8909858275157323 0.8007299439877648 0.5834931807726841 2.2344519560724825e-05 4.6931827457023416e-11 4.5196293001991795e-11 4.22769068262977e-11 3.905023109547958e-11 3.607661898670231e-11 3.3850118961810456e-11 3.670542163583898e-11 9.927006045401773e-11 7.922678830808288e-10 7.103225536451525e-09 5.595726635424887e-08 3.8096688290931334e-07 2.252858490680624e-06 1.1639067445767465e-05 5.279650896693988e-05 0.00021117682418054107 0.0007475737233026825 0.0023500118147541096 0.00658035664599807 0.016462815752390093 0.036912384095372085 0.07441756313024088 0.13540065186292966 0.22330329111475697 0.3355933309865458 0.462678381994002 0.5901145027768658 0.7034646693017373 0.7931708257779166 0.8567004325996929 0.8972291604217633 0.9204229073344569 0.9315315460136061 0.9338980643384183 0.9285820123403102 0.9141383345456415 0.8856322085217009 0.8314873840156143 0.725219588336288 0.5031165849861681 2.121504865289781e-05 1.0297206445455453e-11 9.905791892444867e-12 9.276025904800571e-12 8.608808655395189e-12 8.030760436332529e-12 7.71746089991507e-12 9.824145798462005e-12 4.263937489300287e-11 4.12027920089305e-10 3.883925869629779e-09 3.1636847684646714e-08 2.221353796547554e-07 1.3530553477705191e-06 7.19245757290613e-06 3.353344842542415e-05 0.00013771442995573748 0.0005000756982205182 0.001611248622258384 0.0046216242679985005 0.011840240132805992 0.02718448881400934 0.056134489371154096 0.10466655281051115 0.17701853745676832 0.27300938615406384 0.38643792056021176 0.5059561447800768 0.6184773745352473 0.7134553904553621 0.7856839022305215 0.8353613490564064 0.8659974798063124 0.8818092062365881 0.8858765844235728 0.8792563332071209 0.8604684848838464 0.8244915042489719 0.7602719826456141 0.6447426097961622 0.42850322632236293 1.9722033241935533e-05 2.3383521224043743e-12 2.24790499088312e-12 2.108561703148468e-12 1.9679953684337828e-12 1.856138544448646e-12 1.8403843214291816e-12 2.9079126267799398e-12 1.8559420546213495e-11 2.0066342168402376e-10 1.9774263148316804e-09 1.6711199764673906e-08 1.2150934863019516e-07 7.653821923659376e-07 4.201211204281701e-06 2.019622963120652e-05 8.539539028845552e-05 0.0003188271369384085 0.001054894715862481 0.0031040042848193504 0.008151509606302391 0.01917596481029754 0.04056882810936136 0.07752038309548424 0.1344368316398369 0.2127534669799008 0.3092050241798574 0.4157575452447016 0.5216367703662913 0.6166134266247656 0.6938317465905087 0.7508325927778337 0.7886275078536886 0.80977989693201 0.8165966136348746 0.8099323825195898 0.7884071395735647 0.7474601684383647 0.6774790972796427 0.5598412208968836 0.35831540917364224 1.7828138158460315e-05 5.433990038028899e-13 5.221969999862316e-13 4.909308415978754e-13 4.611827412626904e-13 4.403379027936522e-13 4.537777894917453e-13 9.156316217695305e-13 7.753557596086456e-12 9.072625739548941e-11 9.35733072680453e-10 8.241941316276765e-09 6.23504935287613e-08 4.079078282387179e-07 2.3212919557797093e-06 1.1547147409273078e-05 5.0424375947747804e-05 0.00019405875028672998 0.0006606610120690949 0.0019970103574790143 0.005380265343605384 0.012971844375413556 0.02811023117494201 0.0550108734253886 0.09772815948163983 0.15851923352274538 0.23628368199574845 0.3259854533207667 0.41961489776149097 0.508371446326996 0.5850371479310774 0.6453877723985819 0.6881814089477062 0.7140675009227238 0.7241629143708526 0.7188386608217563 0.6968208195702086 0.6543110300414419 0.5836878673341996 0.4710521465502331 0.2915501123225276 1.5533154840637997e-05 1.2810712672077271e-13 1.2309996823386117e-13 1.1606109920864724e-13 1.098211104089018e-13 1.0626493617193154e-13 1.1435483494765965e-13 2.924490650750542e-13 3.0266657020935857e-12 3.787458599088989e-11 4.1051026939212474e-10 3.788885437911398e-09 2.997913113736767e-08 2.0472922772342697e-07 1.2134847027861055e-06 6.272228144576817e-06 2.83886968708111e-05 0.00011295388266158744 0.0003965794445952999 0.0012334098240885229 0.003411963734792555 0.008431969987307036 0.018705154216042744 0.03744311193035163 0.06802231981216945 0.1128489239287491 0.17212111208445088 0.24311029360944786 0.3204441308272242 0.3973660651083152 0.46741605232644995 0.5257609839375326 0.5696729283374419 0.598140797580117 0.6109870568073716 0.6079073196277124 0.587646245039393 0.5472511771500299 0.48119864303350024 0.38005980584646404 0.2282314593498226 1.2905016959830219e-05 3.042059659591266e-14 2.9238682957634036e-14 2.766074320757588e-14 2.6383897806110522e-14 2.5892594561498527e-14 2.908653761689714e-14 9.082938749456052e-14 1.0870415695366167e-12 1.4515301830806769e-11 1.6626704715153452e-10 1.6182434439178382e-09 1.3475379349620848e-08 9.662731878761688e-08 5.997950016535406e-07 3.237316191915044e-06 1.5252973938250136e-05 6.297222680178157e-05 0.0002286670482370403 0.0007331978946645382 0.0020847793930817357 0.005281614071756048 0.011984569413001302 0.024498303728021812 0.04540093326662148 0.0768023870198134 0.11945626250019427 0.172123472342611 0.23153508435713924 0.2930177333281677 0.35152531145582966 0.40262797182772536 0.44308832471359655 0.47089401676840437 0.4848642010890311 0.48405967229517544 0.46718469009058544 0.43204750509597956 0.3750241921296537 0.29042825380281023 0.169655166051993 1.0100156565052843e-05 7.231407072221013e-15 6.9540025978800705e-15 6.604618378170223e-15 6.354999457005982e-15 6.328626853922995e-15 7.371838581295862e-15 2.6575183877984093e-14 3.5504944654821304e-13 5.071467155236612e-12 6.181405289764781e-11 6.389905313615563e-10 5.64015198162777e-09 4.275904184956249e-08 2.7978365204845266e-07 1.5864051916436102e-06 7.822936099300884e-06 3.366759777597718e-05 0.00012691131323483489 0.0004206553109297585 0.0012313743447152792 0.003199283743531015 0.00741962985516491 0.015457746528748163 0.02913493516744993 0.05006002862640364 0.07904027874521193 0.1156167854164655 0.15794354065562508 0.20306769342649533 0.24749007651191518 0.28777301472658384 0.32098880852653333 0.34489471572284197 0.35785085801324956 0.3585588826502074 0.34573700354827513 0.31781454848664303 0.2726588128411184 0.207360036420722 0.1180679349583388 7.349933168497651e-06 1.711187020700943e-15 1.646886326384799e-15 1.5711280405471925e-15 1.5260498572410095e-15 1.5426018574519405e-15 1.8410887152027636e-15 7.161739559902398e-15 1.0424804312058696e-13 1.6004282292301738e-12 2.0918643756759414e-11 2.3157197780601203e-10 2.184537845059327e-09 1.765349409042172e-08 1.2272553371848194e-07 7.364761407117795e-07 3.826817092414006e-06 1.727037877169485e-05 6.79144109390269e-05 0.0002335726133434915 0.0007055981933363733 0.001881864663894662 0.004458046521569161 0.009446084658032275 0.018043892827524773 0.03134070117459897 0.049947147660860745 0.0737030878446113 0.1015905960903953 0.13186680118104038 0.16234774824390633 0.19072410442401724 0.2148190876192626 0.23274453154190064 0.24293796044584703 0.24410678688744458 0.23512392533405768 0.21491485923336756 0.18237490756989677 0.13636110675112692 0.07579385824077613 4.905772871645282e-06 4.009445489469025e-16 3.8631063562433143e-16 3.703706643076261e-16 3.6339916516824263e-16 3.729650428505585e-16 4.498426534591244e-16 1.7511738476505432e-15 2.7175197867574012e-14 4.509197207789799e-13 6.373520161065738e-12 7.624269350942713e-11 7.759484231046145e-10 6.748395870747868e-09 5.031628898479156e-08 3.224928537453456e-07 1.7808371854491776e-06 8.492721633358339e-06 3.5071415179178285e-05 0.00012581424997418675 0.00039367207563024357 0.00107984778422484 0.002612961493706496 0.005619626532869394 0.010836448984397977 0.018919783162691207 0.030221592019694238 0.04463333774430216 0.06156131794988349 0.0800178463632771 0.09876517259270874 0.11645366272191435 0.13172821910200247 0.14330489812201802 0.15002434840862952 0.15087571625836024 0.14501103988360436 0.13175164708853832 0.11061301867302162 0.0813681399613486 0.044199388609889353 2.960974003342534e-06 9.254283413530512e-17 8.928660714026478e-17 8.60694372643703e-17 8.536354143920926e-17 8.899222689453291e-17 1.0729190232652736e-16 3.8577657420271367e-16 6.204863154382966e-15 1.1183300443088623e-13 1.7238454884481408e-12 2.2499386639511715e-11 2.49631439423953e-10 2.362101657401767e-09 1.9102191072725087e-08 1.3221778070332017e-07 7.842693470284174e-07 3.991913725527475e-06 1.746515461593724e-05 6.583718122585374e-05 0.00021456154377309341 0.0006073487891940958 0.0015025281326746394 0.003274427066292336 0.006346935248195898 0.011065206686180395 0.01756422685388265 0.02570586873243039 0.035106647673553704 0.04522076974610002 0.05541625036640001 0.06501932364463385 0.07333098332749333 0.07964149930453865 0.08325795442105416 0.08354271401766168 0.07996188297582768 0.07213580464646774 0.059896538383836205 0.04336017354812417 0.023035927407653874 1.5916291947581105e-06 2.0930186851977217e-17 2.022633021820911e-17 1.961337303444714e-17 1.967575532523452e-17 2.0849909890404534e-17 2.501939960010368e-17 7.69506706393146e-17 1.224873888885295e-15 2.4034108250050266e-14 4.070795723163108e-13 5.851665498719484e-12 7.15505666925436e-11 7.454993935054201e-10 6.623053448738339e-09 5.0167689029942303e-08 3.239156473355736e-07 1.782297311616293e-06 8.35948153473588e-06 3.345510950070281e-05 0.00011449367639928103 0.00033632372109742724 0.0008527916359337664 0.0018814320332463147 0.0036493760633531606 0.006303260958538239 0.009837414457257429 0.014088699706752235 0.01879724549434803 0.023677165876422535 0.02845514880041417 0.032864846812343924 0.036624094468261134 0.03942105275793906 0.04092281957094271 0.04080209777382136 0.03878066530052692 0.03467624537082744 0.028451586926466824 0.020267085101166833 0.010536100668424902 7.488199573451179e-07 4.6129850992503565e-18 4.466375969628912e-18 4.358765305445073e-18 4.4252685876569155e-18 4.7707940465613955e-18 5.715209047907748e-18 1.4228640890177156e-17 2.0712144380837476e-16 4.4074207395313385e-15 8.244814288072888e-14 1.3155016962916558e-12 1.7904796922479988e-11 2.079094140271819e-10 2.0573134143993563e-09 1.7313915859643443e-08 1.2363724462657044e-07 7.473454071564225e-07 3.816577337965309e-06 1.644771815672806e-05 5.9823231489393856e-05 0.00018399717603233666 0.00048060489731685757 0.0010739216741565444 0.0020750865867954836 0.0035178563398433234 0.005325074786543145 0.007341740270147649 0.009401710637519035 0.011383120584180496 0.013208467899655107 0.014818509704309734 0.016139521377784977 0.017068949327306546 0.017478326013126416 0.017230598735352008 0.0162059461485496 0.014329931537446763 0.011603608634480534 0.008130114696775487 0.0041371048740515455 3.018530773565945e-07 9.850167495334805e-19 9.55772595783306e-19 9.391184629285488e-19 9.654562978785279e-19 1.059844475366686e-18 1.2771554185867123e-18 2.5490280775542078e-18 3.00106440290867e-17 6.816555976272578e-16 1.409586791129857e-14 2.5071109895661205e-13 3.8257370566945045e-12 5.0013309929401816e-11 5.584753019587673e-10 5.30492898356045e-09 4.265743345978555e-08 2.88834596051475e-07 1.6384355529574296e-06 7.751252063430654e-06 3.0485129408539735e-05 9.954977675237883e-05 0.0002703254367149856 0.0006136473043850228 0.0011764922564670053 0.0019350646420295981 0.002791525715175641 0.003622048669544338 0.004347318635914105 0.004944452576877169 0.005431019579200853 0.0058236369677443535 0.006120995564510792 0.0062985664135865775 0.00631507141866656 0.0061218822920473355 0.005675404686250411 0.0049498009353080045 0.003949551178205743 0.0027202464257276553 0.0013551946000602238 1.0135845702518992e-07 2.024930612059901e-19 1.969514271278537e-19 1.949464788207529e-19 2.03073211944979e-19 2.272295078490077e-19 2.7801439467473596e-19 4.747425134231348e-19 4.077845400429036e-18 9.475356869681397e-17 2.121406859365792e-15 4.1175972282022375e-14 6.88707881984483e-13 1.0125758790111032e-11 1.2878590345232947e-10 1.3994800146525885e-09 1.2898102080926319e-08 9.995319572642341e-08 6.452279038679658e-07 3.436949792043432e-06 1.4978134017104534e-05 5.3050055586342605e-05 0.00015215043656681076 0.0003536649071334032 0.0006709368653232418 0.0010566048747749164 0.001415205372357689 0.0016755419786163238 0.001818892242109477 0.0018842729739285205 0.001909929659732056 0.001920615546858605 0.0019207571784641733 0.0019031493565402977 0.0018540320489381775 0.0017575011939144397 0.001599584082781195 0.0013722950763140679 0.0010772675227561045 0.0007288542215039477 0.000355551734596612 2.7228768110475285e-08 3.979452579286949e-20 3.88086914084849e-20 3.871674749115873e-20 4.0894887779231356e-20 4.668787220578685e-20 5.835020173876408e-20 9.174733584544012e-20 5.6008603047133645e-19 1.2854486776543438e-17 3.1101785109169447e-16 6.590826583965108e-15 1.2091813312874672e-13 1.957369969152796e-12 2.74994575667376e-11 3.310213361142289e-10 3.3874748218304734e-09 2.9756524333563107e-08 2.242361550823065e-07 1.3867581570948382e-06 6.922018170880649e-06 2.7450353710875124e-05 8.540561922467623e-05 0.0002067286662749656 0.0003892241682168146 0.0005753948188820179 0.0006933772230754917 0.0007069933059744648 0.000660731622348926 0.0005945577702187451 0.0005394035431887859 0.0004979334517550858 0.00046697404879297524 0.00044097968236928324 0.00041437685320063394 0.00038209444357295655 0.00034015759980294733 0.0002863492868719083 0.0002208206356670342 0.00014667546780839646 7.007289497371755e-05 5.489678027422129e-09 7.417825044640079e-21 7.254927252718533e-21 7.29857018623045e-21 7.822223770817644e-21 9.118981583767813e-21 1.1682633749865948e-20 1.7769535269405738e-20 7.833392897238039e-20 1.6902650384526216e-18 4.405432168266426e-17 1.019798803172882e-15 2.054078194174346e-14 3.6645713649203367e-13 5.693590645428563e-12 7.601990381990532e-11 8.651583110396292e-10 8.472438447004908e-09 7.136134083922242e-08 4.944096051463113e-07 2.871659698930752e-06 1.3336872029876566e-05 4.695180296766937e-05 0.00012254990657444332 0.0002320428243209457 0.0003185283916877366 0.0003191756642641999 0.0002618157585919562 0.0001858267011245369 0.00013793947173068382 0.00010804977776890224 8.969533260426729e-05 7.782063699429447e-05 6.94212852639723e-05 6.25372939072079e-05 5.5852986750272766e-05 4.849332522410971e-05 3.997730563567368e-05 3.0251135830060448e-05 1.9718153308423505e-05 9.227880010137997e-06 7.389764807349747e-10 1.2997630920781533e-21 1.2752259998951616e-21 1.2942652833501757e-21 1.4082934052456482e-21 1.6777394130787764e-21 2.20804995344006e-21 3.3487622547583064e-21 1.1205458557422142e-20 2.1392343130675016e-19 5.972618766794316e-18 1.5111421515367048e-16 3.3449188433811897e-15 6.584195043965907e-14 1.1326771822864918e-12 1.6797402863817517e-11 2.1291023890135125e-10 2.3282726799863046e-09 2.1959979198767884e-08 1.708642059160521e-07 1.1185877388093713e-06 5.878439073959999e-06 2.417386032927461e-05 7.181107481343116e-05 0.00014445853845770456 0.00017891908474777316 0.00013557446723955611 6.01155138196725e-05 3.0239611784396417e-05 1.725525068611889e-05 1.1354535396223248e-05 8.322884307749456e-06 6.614458432525206e-06 5.538989539599152e-06 4.764513486796929e-06 4.110662962665053e-06 3.474496339293576e-06 2.801973071872422e-06 2.079347045181655e-06 1.3299759178540673e-06 6.09977045699173e-07 4.989642361585173e-11 2.1186693911873746e-22 2.0856726386874898e-22 2.136518155425448e-22 2.3615698605125174e-22 2.877012220334836e-22 3.8956451753618112e-22 5.996650099966368e-22 1.6311771879537802e-21 2.5877901251010044e-20 7.667893238172474e-19 2.1212133041278526e-17 5.165264493791683e-16 1.1231088093895878e-14 2.141843509360539e-13 3.5322015632740536e-12 4.9926271147505e-11 6.103942338837416e-10 6.454067753180736e-09 5.6466521233414085e-08 4.1703954717722357e-07 2.4858202915129106e-06 1.1642136153082403e-05 4.0114772137186555e-05 8.973781070995384e-05 0.00011145943836626393 1.1156275970881937e-08 4.888608827837454e-09 3.305986973887853e-09 2.194952203883278e-09 1.6492447479907564e-09 1.3499959125446816e-09 1.1815336457096186e-09 1.0766057444249867e-09 9.966400225762404e-10 9.152753755441014e-10 8.138453566609987e-10 6.815854670364843e-10 5.177418683112542e-10 3.334595998742173e-10 1.5106273487992238e-10 1.1965848651463321e-14 3.173419520554271e-23 3.135271629294536e-23 3.242934413732888e-23 3.643259549387465e-23 4.541790322438943e-23 6.334480749604148e-23 9.999743028890055e-23 2.372439494028015e-22 2.9713074010311054e-21 9.206645651556562e-20 2.7849522771828876e-18 7.46794819640296e-17 1.79567835612067e-15 3.8004263056814556e-14 6.976957796214358e-13 1.1007008798874945e-11 1.5054666160833227e-10 1.7849703313368352e-09 1.755389798396957e-08 1.4611569033677074e-07 9.8445344578831e-07 5.251155104030845e-06 2.053873754938746e-05 5.448360261431212e-05 7.803146883654927e-05 2.466221711380461e-09 8.733444158967868e-11 5.9900899781321e-11 3.971893003440788e-11 2.5685850128162646e-11 1.627419192648523e-11 1.0122573058453418e-11 6.183393036802843e-12 3.705859534799282e-12 2.1733478886085834e-12 1.240076473081709e-12 6.799047588564389e-13 3.4859146094650717e-13 1.569811527327175e-13 5.157940185000305e-14 2.77817306170384e-18 4.3037493374452835e-24 4.268162481927078e-24 4.459362824729714e-24 5.094378827494868e-24 6.5025356503975174e-24 9.350435647037097e-24 1.5231683333912102e-23 3.3467211250516155e-23 3.214782834673223e-22 1.0187350640091406e-20 3.3681098424172653e-19 9.955736339306445e-18 2.6501091101733576e-16 6.230711215755883e-15 1.274410391970416e-13 2.2452733162308132e-12 3.435834794308357e-11 4.5650012857601073e-10 5.038202929931985e-09 4.709516055436765e-08 3.5703887848424194e-07 2.1376017543831307e-06 9.533450082974305e-06 2.7336232849768835e-05 5.352212145550762e-05 4.019394906800154e-05 2.9651066331293327e-05 2.0735543468592595e-05 1.4021605723506826e-05 9.23924718067861e-06 5.953921862441342e-06 3.754522000667472e-06 2.312293892351259e-06 1.3840737817390622e-06 7.980461845518524e-07 4.364747071298661e-07 2.2048209504835553e-07 9.797891248161824e-08 3.465821169092933e-08 7.46589529692735e-09 1.6457367364132168e-14 5.188844209713539e-25 5.1663668967973505e-25 5.454326893122187e-25 6.339123061218263e-25 8.289407317722538e-25 1.2300438145563513e-24 2.075528748049432e-24 4.417361678222838e-24 3.248291321438246e-23 1.0204929487224599e-21 3.68282945618263e-20 1.2011186503482214e-18 3.5430412695095505e-17 9.262248103158088e-16 2.1121097682668818e-14 4.156685942749684e-13 7.113956195673126e-12 1.0577636619529828e-10 1.3064791965099025e-09 1.3652063180212474e-08 1.153994836925282e-07 7.694469521809474e-07 3.7590443529141394e-06 1.2249233999752623e-05 2.396850470912681e-05 2.349524207887272e-05 1.7432624501154184e-05 1.2369790119107204e-05 8.424570945698286e-06 5.57496513297031e-06 3.6052934707163767e-06 2.2846986491296824e-06 1.4188134838395987e-06 8.610067765741482e-07 5.070926608834467e-07 2.8592597292669906e-07 1.5043399740212442e-07 7.030899110462055e-08 2.6359837041015688e-08 6.044446096528214e-09 1.3809068126530445e-14 5.433320015255264e-26 5.432065819378953e-26 5.796762057698307e-26 6.856666008663679e-26 9.191459722942124e-26 1.4085922553954985e-25 2.4683691200396497e-25 5.247704929397937e-25 3.0235495737527893e-24 9.049571498883124e-23 3.556052405163456e-21 1.2807706561253142e-19 4.190795642481251e-18 1.21921331294509e-16 3.101349881927802e-15 6.818590586478932e-14 1.3043181876630648e-12 2.1665855863600176e-11 2.9849831250563463e-10 3.4665035321944024e-09 3.2406343400834115e-08 2.365575763602302e-07 1.2553990891770187e-06 4.316396458630443e-06 8.924528292371993e-06 9.437071001848335e-06 7.871649071230846e-06 5.760577889617574e-06 4.003831549609759e-06 2.68