# vtk DataFile Version 3.0
vtk output
ASCII
DATASET RECTILINEAR_GRID
DIMENSIONS 41 41 1
X_COORDINATES 41 double
0 1 2 3 4 5 6 7 8 9 10 11 12 13 14 15 16 17 18 19 20 21 22 23 24 25 26 27 28 29 30 31 32 33 34 35 36 37 38 39 40 
Y_COORDINATES 41 double
0 1 2 3 4 5 6 7 8 9 10 11 12 13 14 15 16 17 18 19 20 21 22 23 24 25 26 27 28 29 30 31 32 33 34 35 36 37 38 39 40 
Z_COORDINATES 1 double
0
POINT_DATA 1681
FIELD FieldData 1
Concentracao 1 1681 double
1.0 1.0 1.0 1.0 1.0 1.0 1.0 1.0 0.9999999999999999 0.9999999999999999 0.9999999999999999 0.9999999999999998 0.9999999999999997 0.9999999999999996 0.9999999999999998 0.9999999999999998 0.9999999999999999 0.9999999999999999 0.9999999999999999 0.9999999999999999 1.0 1.0 1.0 1.0 1.0 0.9999999999999998 0.9999999999999998 0.9999999999999999 0.9999999999999997 0.9999999999999987 0.9999999999999944 0.999999999999973 0.9999999999998554 0.9999999999991065 0.9999999999928834 0.999999999910188 0.9999999976254703 0.9999998431910737 0.9999776642814793 0.9951700855916931 4.0079792109753285e-05 1.0 1.0 1.0 0.9999999999999999 0.9999999999999996 1.0 1.0000000000000002 1.0000000000000002 1.0000000000000002 1.0 1.0000000000000002 0.9999999999999999 0.9999999999999998 1.0 0.9999999999999994 0.9999999999999991 0.9999999999999991 0.9999999999999992 0.9999999999999991 0.9999999999999991 0.9999999999999993 0.9999999999999991 0.9999999999999991 0.9999999999999988 0.9999999999999991 0.9999999999999988 0.9999999999999989 0.9999999999999989 0.9999999999999987 0.9999999999999978 0.9999999999999926 0.9999999999999664 0.9999999999998308 0.9999999999990312 0.9999999999928385 0.9999999999144817 0.9999999977543215 0.9999998491117141 0.9999780523857492 0.9951987578319281 4.0080580875928476e-05 1.0 1.0 1.0 1.0000000000000002 0.9999999999999998 1.0 1.0 0.9999999999999997 0.9999999999999998 0.9999999999999996 0.9999999999999993 0.999999999999999 0.9999999999999991 0.9999999999999993 0.9999999999999993 0.9999999999999991 0.9999999999999991 0.9999999999999988 0.9999999999999987 0.9999999999999984 0.9999999999999982 0.9999999999999983 0.9999999999999982 0.9999999999999984 0.9999999999999984 0.9999999999999987 0.9999999999999987 0.9999999999999984 0.999999999999998 0.9999999999999958 0.9999999999999862 0.9999999999999444 0.9999999999997617 0.9999999999988721 0.9999999999930851 0.9999999999247255 0.9999999980258731 0.9999998594132299 0.999978712283347 0.9952403772133405 4.0081465681556946e-05 1.0 0.9999999999999999 1.0 1.0 1.0 0.9999999999999998 0.9999999999999997 0.9999999999999998 0.9999999999999993 0.9999999999999993 0.999999999999999 0.9999999999999988 0.9999999999999986 0.9999999999999986 0.9999999999999983 0.9999999999999982 0.9999999999999979 0.9999999999999976 0.9999999999999969 0.9999999999999967 0.9999999999999961 0.9999999999999954 0.9999999999999948 0.9999999999999943 0.9999999999999933 0.9999999999999922 0.9999999999999909 0.9999999999999886 0.9999999999999838 0.999999999999969 0.9999999999999195 0.9999999999997554 0.9999999999992433 0.9999999999976542 0.9999999999913076 0.9999999999366503 0.9999999983330389 0.9999998726265671 0.9999793581173031 0.9952630751478119 4.0082328757136145e-05 0.9999999999907989 0.9999999999900849 0.9999999999883079 0.999999999985308 0.9999999999808881 0.9999999999749208 0.9999999999673287 0.9999999999580783 0.9999999999471681 0.9999999999346166 0.9999999999204497 0.9999999999046927 0.9999999998873637 0.9999999998684689 0.9999999998480025 0.9999999998259425 0.9999999998022459 0.9999999997768448 0.999999999749638 0.9999999997204783 0.9999999996891565 0.9999999996553804 0.9999999996187411 0.9999999995786731 0.9999999995344016 0.9999999994848705 0.9999999994286597 0.9999999993638793 0.9999999992880879 0.9999999991983282 0.9999999990916587 0.9999999989679115 0.9999999988351741 0.9999999987354915 0.9999999987345087 0.9999999988890121 0.999999997930377 0.9999998827362693 0.9999795631972352 0.99520891895476 4.008299256016287e-05 0.9999955879507276 0.9999954338730436 0.9999950829746683 0.9999945437714823 0.999993840985504 0.9999930044937074 0.9999920651079106 0.9999910493897421 0.999989978484668 0.9999888684031715 0.9999877307128717 0.9999865735476515 0.999985402310655 0.9999842204398689 0.9999830298134784 0.9999818311511107 0.999980624169541 0.9999794076449213 0.9999781794510667 0.9999769363381337 0.9999756737910075 0.9999743855998094 0.999973063572305 0.999971697128799 0.9999702728657235 0.9999687745135013 0.9999671838866049 0.9999654836618209 0.9999636648036415 0.9999617430683639 0.9999597980579181 0.9999580294086928 0.999957009436609 0.9999571996754367 0.9999636458376446 0.9999716965047233 0.9999876599619697 0.9999953071765548 0.9999772081190282 0.9950077515559588 4.00832252642449e-05 0.01757860116013801 0.01747407646603892 0.017215265437252398 0.016835907925691902 0.016375454379681503 0.0158664403852239 0.015331756987288224 0.014785611334322333 0.014235678967640974 0.013687287884720995 0.013142629519206283 0.012603372400541562 0.012070656732351389 0.011544504378596714 0.011025588365948434 0.010513969800076415 0.01000986536515041 0.009513123947310386 0.009023786555609157 0.008541896888662533 0.008067681002684589 0.0076008733323786794 0.007141414736651941 0.0066894448294668165 0.006244826143668734 0.0058071868921524385 0.005376570244911605 0.004952556538294529 0.004534789028151873 0.004122070366818247 0.0037142066420031944 0.003305200862232626 0.0029096840181893663 0.0024243966679353213 0.00247918633949481 0.999950610011341 0.9999731454340631 0.9999901290954826 0.999972167603216 0.9945390973728644 4.008262478766708e-05 0.00015475676020717215 0.00015299501534560877 0.0001486639411881137 0.00014239111885938348 0.00013490201696779268 0.00012679575320431708 0.00011850220783684855 0.00011028202548711255 0.00010228464015876852 9.459226618216885e-05 8.724422829434573e-05 8.025907303404828e-05 7.364212988020801e-05 6.739134929474599e-05 6.151106976847709e-05 5.6017143164467534e-05 5.094725997981786e-05 4.638045112697459e-05 4.2443516265934754e-05 3.9295804567792166e-05 3.708881492177426e-05 3.590814717790495e-05 3.572304357052311e-05 3.638039941578643e-05 3.7640566056068886e-05 3.924879493666561e-05 4.0995733520774614e-05 4.274123660461758e-05 4.44073484982159e-05 4.595425187386925e-05 4.736081206873735e-05 4.860726900283207e-05 4.9670789382977445e-05 5.048929221249497e-05 0.00010261365652718087 0.9999482414045906 0.9999719634521602 0.9999876894527326 0.9999626820625235 0.9936727834034754 4.008050710216616e-05 9.105544749876444e-07 8.89373749764574e-07 8.421226334815478e-07 7.782128909072167e-07 7.065951997256711e-07 6.342604336029575e-07 5.719155827966444e-07 5.817591323981034e-07 1.0967965730841804e-06 4.6908245205938184e-06 2.4220777710401113e-05 0.00011394760225286697 0.000468042654957628 0.001676102342384664 0.005253263455465089 0.01447110878248798 0.035176953775828676 0.0757549007437866 0.14513305537245924 0.24854367220766355 0.3827044103679 0.533841794739368 0.6812050262032212 0.8050692882230808 0.8944152696653579 0.9494794684425459 0.978405165148987 0.9914085316716125 0.9965188284568889 0.9983867657313181 0.9991098299363008 0.9994530701018749 0.9996558259459083 0.9997898488975041 0.9998763351076421 0.9999329574649148 0.9999170407097568 0.9996600749439928 0.9977154902777233 0.9646047568985637 4.003802284396463e-05 1.0234181460641597e-07 9.953984787874463e-08 9.380193599227101e-08 8.642273996519179e-08 7.852454997749961e-08 7.128956494308286e-08 7.082590149259794e-08 1.2845992091226214e-07 6.15437312953967e-07 3.765873363708589e-06 2.086325741547816e-05 0.00010006077710376297 0.00041568978289082054 0.0015035941185729844 0.0047591137188164 0.013239257080586878 0.03250097191091273 0.07068614604481131 0.1367635268689987 0.236508324346461 0.3676630131301511 0.5175503325045718 0.665978053123826 0.7928536216350938 0.8860687836245478 0.9446775327039455 0.9761245714901895 0.9905477570120734 0.9962763693259015 0.9983199687338694 0.9990233161779385 0.9992760361592294 0.9993661246687914 0.999375292766553 0.9993219741410414 0.9991109960841814 0.998477512937956 0.9960616591095518 0.9835006049546792 0.8992387640950291 3.989899815978016e-05 1.7289245050689005e-08 1.6766934628260473e-08 1.5766016921613324e-08 1.4534345721214647e-08 1.328643414841555e-08 1.251851937701556e-08 1.6739421285649127e-08 6.624083251067364e-08 4.577719332729559e-07 3.0063780608929957e-06 1.70292131677593e-05 8.295296852809147e-05 0.0003496279681418565 0.001282685414447293 0.004117156244132965 0.011613928734681615 0.028909027836575233 0.06374791469393591 0.1250459389526523 0.21921027670963072 0.34535997917458205 0.4924712589575931 0.6414176351538389 0.7719246604889172 0.8705254066267862 0.9345389116918802 0.9701846366929027 0.9872514454125397 0.9943599127079109 0.9970013416468463 0.9978963575878245 0.9981368936493589 0.9980838337212445 0.9978145981183795 0.9972353914986688 0.995962741415084 0.9928139400931149 0.9838639367084032 0.9528725882241835 0.8150443791141484 3.961575593498015e-05 3.531166564468118e-09 3.4173067303522914e-09 3.211376781868025e-09 2.969053192665471e-09 2.7469969651135832e-09 2.8412569400065126e-09 6.4635372393294484e-09 4.3133665143646296e-08 3.3494288704740526e-07 2.2692503366083504e-06 1.3119873795088032e-05 6.512551185519588e-05 0.00027956924684753023 0.0010443155151148736 0.0034120460116106844 0.009794988989665344 0.02480742543633269 0.05565126375512546 0.11104250773907202 0.1979861018000469 0.31718094941109387 0.45971446624647017 0.6080950105958729 0.742245033710273 0.8472996084504525 0.9184075482116092 0.9599906659279631 0.9810781836737983 0.990450194982525 0.9941511910952138 0.9954074143891247 0.9956057289975372 0.995209934370537 0.9942428979429092 0.9923790636742921 0.98869022152804 0.9807499643101504 0.9615321951396765 0.9076527920692693 0.7286788808797676 3.914923071903388e-05 8.056540483797438e-10 7.785009491821291e-10 7.319878067030437e-10 6.799514005862154e-10 6.427095020800064e-10 8.04254918121758e-10 3.3011668519185647e-09 2.8315870911492914e-08 2.316775255529507e-07 1.6122795006337926e-06 9.543887417300993e-06 4.8463877755227714e-05 0.00021271324445098797 0.0008119779728099792 0.0027098127911641084 0.007942487091155822 0.020531467308763734 0.046998570468430034 0.09567191719014556 0.1739990205561248 0.2842816016859707 0.420051189223727 0.5660414119416641 0.7029633627283587 0.8148233354729912 0.8943733291767646 0.9436808767056617 0.9704509156204757 0.9833005841110032 0.9887753476802633 0.990700663982281 0.990862925011211 0.989875665395304 0.9876888470486276 0.9836673811386 0.9762087988285292 0.9614921439640318 0.9298018822983074 0.8538840695694939 0.6476858418345154 3.846239216333989e-05 1.9742066752136267e-10 1.905725882466103e-10 1.7944481630521573e-10 1.6777612656488832e-10 1.6444390506812957e-10 2.784163682359134e-10 1.8310261209154324e-09 1.7699198134165696e-08 1.504123036708767e-07 1.0775688706622218e-06 6.556403766091125e-06 3.419383813302349e-05 0.00015402741548979518 0.000602988967715064 0.0020623208026637743 0.006190824159108668 0.01638109506355419 0.03836597050589241 0.0798806974671359 0.1485578050723565 0.24814087765815881 0.3747286268895372 0.5157908967202397 0.6535640544516451 0.7715137394020617 0.8601152295249037 0.9186834422844953 0.9529570372007315 0.9708602658063242 0.9791941710665447 0.9823742212178417 0.9826744717972741 0.9809356976870613 0.9770658718316009 0.9701150993331809 0.9578102411111606 0.9351465011207245 0.890643467071964 0.7959871505866766 0.5749521944608607 3.75179310331094e-05 5.076875536923216e-11 4.897630740425389e-11 4.622069733738163e-11 4.357427025158721e-11 4.5207523710239404e-11 1.1120247016853847e-10 9.999452194833972e-10 1.0373058986126605e-08 9.145085760730583e-08 6.770423778494146e-07 4.252268054025616e-06 2.2870323269305587e-05 0.00010613502840774428 0.0004276391234137421 0.0015038647602473524 0.004637411258853396 0.012594355048920688 0.030253817158411325 0.06456996911295253 0.12304472464736879 0.21052922325006798 0.3255716672328761 0.45868129298920024 0.5943502169625793 0.7163523415380146 0.8134082257050202 0.882014258790101 0.9253989599959486 0.9501294389077634 0.9627901783552634 0.9682001644538096 0.9691301236699268 0.9667272568020673 0.960937631839788 0.9505741227306389 0.9328418979577393 0.9019308013208122 0.8455832471686807 0.7365725829552731 0.5101858302389831 3.627319345518868e-05 1.3494045679659591e-11 1.30143021132573e-11 1.2317778410115082e-11 1.1731033374004124e-11 1.3177004150949966e-11 4.725326456789246e-11 5.170497520092336e-10 5.666019961373789e-09 5.196866732961407e-08 3.9941077842689287e-07 2.6012034626805493e-06 1.4490303097554476e-05 6.956313976902305e-05 0.00028955397123758234 0.0010505358215469813 0.003337807894185369 0.0093286409704868 0.023036324235081125 0.05049722124919896 0.09876452817881336 0.17335089196553005 0.2748902369558416 0.39694043675440527 0.5267985705856312 0.6494790153666703 0.7528210102501954 0.830888168584624 0.884165832328005 0.9172451031242425 0.935863552999074 0.9448416834431692 0.9473005344662719 0.9447117779275729 0.9371520474110323 0.9233378560475491 0.900182324790584 0.8615243752219638 0.7952035651921923 0.6764161487125443 0.4518985804241704 3.4674711570545305e-05 3.666519231139408e-12 3.536478579712969e-12 3.358867968576653e-12 3.2367366713630564e-12 4.005351215426274e-12 1.9981768095686332e-11 2.4893711367052134e-10 2.872374955341841e-09 2.7530340177030404e-08 2.2077062408403422e-07 1.498349963610014e-06 8.686237559306996e-06 4.332657767461765e-05 0.00018706896209177263 0.0007027930895673276 0.002308125600496213 0.006656795228167881 0.01693692627062456 0.038200370564137075 0.07678736026072831 0.13839550737349773 0.22520242682512828 0.33351070077501643 0.4536427785237673 0.5726400613778704 0.6785034033024747 0.7636652706854747 0.8261008699757787 0.868090221278299 0.8939216804164015 0.9078648206330803 0.9130582113268635 0.9111847925573592 0.9024919773481392 0.8857457771499889 0.857830221225379 0.8126739296526585 0.7389192666776818 0.6149502464581176 0.39810884606655916 3.265232346913262e-05 1.0098865357926815e-12 9.744225856846004e-13 9.29258362228227e-13 9.069325121403338e-13 1.2418316145360821e-12 8.05453458502363e-12 1.10486615897175e-10 1.3450296935115144e-09 1.3544960664763597e-08 1.139788879451943e-07 8.105986985984007e-07 4.916054832935257e-06 2.5605040495463702e-05 0.00011520413330987719 0.00045001130295699673 0.0015331939253517993 0.004576844855861776 0.012026948372435026 0.027960707606275396 0.05783317067131048 0.10710152662545708 0.17887315726410857 0.271642367886755 0.37860196879815455 0.4892679842237664 0.5927403392357152 0.6808556956505951 0.7497569056462732 0.7995370147526935 0.8326954508216126 0.8524354184522255 0.8614686234283528 0.8614304292080811 0.8526680303742705 0.8340836481844249 0.8027625869402443 0.7531104041489772 0.6750853107919204 0.5506697267700775 0.34672632301755113 3.012024954667722e-05 2.8001919347040153e-13 2.703648922632386e-13 2.5901093834962335e-13 2.560217903642687e-13 3.829980567117729e-13 3.0140688948371866e-12 4.4825103803801256e-11 5.782494912058631e-10 6.156428803302993e-09 5.4704941971856557e-08 4.1024094756915425e-07 2.618662954824111e-06 1.432424901491174e-05 6.751618216367021e-05 0.00027553764344795666 0.0009779699690779366 0.003032409611490906 0.008253023422432572 0.01981705681772823 0.04222823390529944 0.08038924435681923 0.13776417333281288 0.2143649789650225 0.30578297505722 0.40403998829460175 0.49994514701525855 0.5857098460318307 0.6565814245669819 0.71102562108571 0.7498410920531742 0.7749081525543704 0.7881331654681392 0.7907847974659115 0.7831377730122545 0.7642213568780853 0.7314654358725103 0.6800339268638417 0.6015544382296393 0.4817386039041827 0.2958722196958712 2.6995864166510548e-05 7.769671334832805e-14 7.508639290050545e-14 7.229361823095741e-14 7.229838818813972e-14 1.1481842603361815e-13 1.0283343365691934e-12 1.6474780580473386e-11 2.2649902199211744e-10 2.567020746974925e-09 2.4258092149398e-08 1.9318019762895948e-07 1.3069407424452616e-06 7.5580782071124715e-06 3.7555188971149223e-05 0.0001610474749440795 0.0005985271758001252 0.0019360849581285238 0.005476247097245101 0.013615224033765397 0.02993395996611905 0.058604846920761115 0.1029987760865002 0.16398921918144788 0.2389263390037797 0.322008062924164 0.40594013775651344 0.4839784880077523 0.5513726424053016 0.6057635984023454 0.6467295276014752 0.6749472835821114 0.6913902500382572 0.6967422374255218 0.6910252663626105 0.6733182932043408 0.6414415512988706 0.5914647017961503 0.5168493593435692 0.40695447365485143 0.2443628375027148 2.3246128211424026e-05 2.145608310620934e-14 2.0759920632371942e-14 2.0096375833417032e-14 2.0299619089448962e-14 3.2895485970696944e-14 3.152919816348018e-13 5.4277139565242485e-12 8.00350675117576e-11 9.727910990970203e-10 9.853364001063184e-09 8.40005027549441e-08 6.071488857031794e-07 3.741376011000366e-06 1.9745610892860073e-05 8.959980979311221e-05 0.00035088391909171557 0.0011905602929034786 0.0035154212400742733 0.009079685994150238 0.020638469702172108 0.04158516837790896 0.0749111270048141 0.12181858302078799 0.1807668933475518 0.24760186432257986 0.31675053172912326 0.3827867644020318 0.44159795210687375 0.4907662361674828 0.5293147446172388 0.5571457780358016 0.5744780423560122 0.5814209628639626 0.5776760746955922 0.5623094162295356 0.5335163614409114 0.4882894572978121 0.4218940591993762 0.32701537554908233 0.19232146063477915 1.8958029840321007e-05 5.866675939077524e-15 5.684628874069871e-15 5.535012079499158e-15 5.6385687512245084e-15 8.935304519670003e-15 8.579079155573482e-14 1.5834826133159227e-12 2.5206630001001576e-11 3.311452121950101e-10 3.62578867852022e-09 3.33847599879229e-08 2.6016651071222514e-07 1.724142450830634e-06 9.75192497748484e-06 4.722810518965569e-05 0.00019643454845533987 0.0007040407008900076 0.00218302042168435 0.005884112324642765 0.01386984245141303 0.02880208862455917 0.05316063507382692 0.08811674197732346 0.1327024569769153 0.18385563784507558 0.237349086080347 0.28902912221785426 0.3357128048852964 0.37545639322141233 0.40732894919862184 0.43098602868474006 0.44626991943960986 0.45292900921777185 0.4504430472191462 0.43788797028112186 0.4138107354699693 0.3760492550021143 0.32146524597280035 0.24551775217761423 0.1416088637644998 1.4393988384962214e-05 1.5803382933870775e-15 1.5338571274557573e-15 1.5027818694031536e-15 1.5428478580465437e-15 2.3076447681809405e-15 2.0506526479789074e-14 4.0356325453227975e-13 6.975516259672271e-12 9.980506195335939e-11 1.191645504501921e-09 1.1965344447708436e-08 1.0157244447552292e-07 7.316036064295547e-07 4.482619564754702e-06 2.3412605850775258e-05 0.00010445787869286799 0.0003990835154855923 0.00130971894790241 0.0037076612731972948 0.00910446925057357 0.01953347083992559 0.036949901687507364 0.06230222821957769 0.09482594889046893 0.13209181427397754 0.17081704561083833 0.207909820700882 0.24115150150674397 0.2693212745209077 0.29190995021168126 0.30873376828733234 0.3196239596945362 0.324253702563414 0.322066285324879 0.31224305837999555 0.29367874620627943 0.2649268568171535 0.22410547390768015 0.168741204886487 0.0955375321940167 9.977016710546502e-06 4.172399666020891e-16 4.05730367106617e-16 4.0014528183935386e-16 4.1419476105626494e-16 5.741050300587159e-16 4.28526425840739e-15 8.862777009638042e-14 1.6699723328278736e-12 2.6195700994520633e-11 3.438979016802372e-10 3.802429280328077e-09 3.5547932721456217e-08 2.8160214353319694e-07 1.89240382627896e-06 1.0795123342781874e-05 5.230920040362842e-05 0.0002155348488489107 0.0007566054248008982 0.002269679262740838 0.005845801962815867 0.01301378081904813 0.025264699506041398 0.04326135525251291 0.06623380232615617 0.09207457564495428 0.11813614076497568 0.14216304298288032 0.16281979425510493 0.17963774636734214 0.19265394771493416 0.202015792895449 0.20773389624200464 0.20958980869536234 0.20714265774699575 0.19976451688127214 0.186686871750493 0.16702092116955009 0.13975882029431239 0.10375895332851225 0.05769851842136812 6.174529919826349e-06 1.0739036340592144e-16 1.0465068661048129e-16 1.0393417582057649e-16 1.0859825657560738e-16 1.4004514486285933e-16 7.883830268022475e-16 1.657628789725724e-14 3.406528345006051e-13 5.883836102130948e-12 8.549431896240377e-11 1.0500624522989754e-09 1.0927014451675368e-08 9.63901652593777e-08 7.203024422587091e-07 4.554246122623567e-06 2.433261855842668e-05 0.00010975443054032795 0.00041792908142477777 0.001345158510895284 0.003670848500249822 0.008539337755245983 0.017071660124770748 0.029663001835641366 0.04544761604143684 0.06247266080755954 0.07853343371332942 0.09208184434170101 0.10254866952567236 0.11014672670145442 0.11537001283706326 0.1186374815043748 0.12011433379940824 0.11970712504131974 0.11712222757366565 0.11194063011300298 0.10368177383561213 0.09184739375825889 0.07596080257228857 0.05559159442955868 0.030370167566868025 3.324689939285782e-06 2.6792791399860735e-17 2.617019582724979e-17 2.6182300087009444e-17 2.765606132429825e-17 3.3899089239921687e-17 1.3156331926977444e-16 2.62325077723155e-15 5.848662668086501e-14 1.113252420560756e-12 1.7965437588526827e-11 2.465905482004361e-10 2.8813038514509376e-09 2.8627081685726317e-08 2.412160003935805e-07 1.7177943886562005e-06 1.0299721762069003e-05 5.1804462306107114e-05 0.0002179400822649311 0.0007656209380241308 0.0022466938095846386 0.005523394877763979 0.011447098451181647 0.020203061021485037 0.03081445162299056 0.041397172390833556 0.050142888860271455 0.05612116885712283 0.05950079992220162 0.06098029050074784 0.061318343673371585 0.060978650072490106 0.060127247950364046 0.05870075443326137 0.05650483940829655 0.05328033115561811 0.04875439448667673 0.04267504200139453 0.03483979374083226 0.025121214135781597 0.013483344243131804 1.508303091401641e-06 6.439466585360123e-18 6.305810019280462e-18 6.358165887648478e-18 6.800100723430839e-18 8.170161412755328e-18 2.2407081900873438e-17 3.849976335354205e-16 9.113912867989239e-15 1.8799147217324958e-13 3.3088694536247954e-12 4.978636128102021e-11 6.404411102002912e-10 7.178870377280857e-09 6.899918054812506e-08 5.619267483065158e-07 3.852207032526761e-06 2.2072153921383883e-05 0.00010497025971250796 0.0004118573257118759 0.0013275972725155865 0.0035109572780130448 0.007635244604008248 0.013751156004662814 0.020776444129168188 0.026892386518851962 0.03062109035962959 0.03178341990644922 0.031075550291685784 0.02956338016424137 0.027901096632563873 0.026381511322643533 0.025015703791885176 0.023701446127557757 0.022292491162381353 0.020635352352292326 0.018589158389773656 0.01603931646285477 0.012907542387285911 0.0091632976446025 0.004831829193053314 5.51931750026458e-07 1.480658408583877e-18 1.4539771074956161e-18 1.4782005817250485e-18 1.6025492611568555e-18 1.9247861623512492e-18 4.063949110092632e-18 5.535145360495346e-17 1.3750550875280373e-15 3.0709532428173705e-14 5.894116414222684e-13 9.720354010593968e-12 1.376491761706084e-10 1.7050873378193165e-09 1.8171064166157713e-08 1.6454313051644138e-07 1.257090424184912e-06 8.171252309966001e-06 4.509122356785367e-05 0.00020344876352106143 0.0007421213389020554 0.0021691361923802163 0.005056415192070575 0.00940079287129498 0.0140484020498758 0.017156036788775628 0.017769003254595735 0.016239066900379105 0.013988532841786222 0.011842704386676683 0.010204295307316251 0.00899633588416072 0.008093425356492413 0.007370788270073709 0.00672759735657583 0.006083527796172692 0.00537661358094599 0.0045624157717681435 0.003613974106967946 0.0025243357108380928 0.0013075759059878306 1.524452064531898e-07 3.232021718589158e-19 3.183280514722682e-19 3.264563983877129e-19 3.590437781725323e-19 4.35633444402902e-19 7.740225650087244e-19 7.793638706252354e-18 1.9933409899139038e-16 4.814831208531488e-15 1.0077146189847653e-13 1.821756820523024e-12 2.8404988972505048e-11 3.889119537806613e-10 4.596672360702558e-09 4.629703340059104e-08 3.943785774753449e-07 2.8649407677540707e-06 1.7712165074307687e-05 8.968583900521087e-05 0.00037737260906641856 0.0012686834995299645 0.0032826957986823125 0.006467180251794461 0.009611072941441017 0.010862094246528294 0.009545184947826912 0.007131093982630004 0.004847268244180531 0.003484032276162158 0.002651958705244269 0.0021378776756059855 0.0018010952235572443 0.0015630210909572187 0.0013761026995138456 0.0012104662994061567 0.0010465438414602596 0.0008716714906775266 0.0006788546483225672 0.00046628080105483197 0.00023726199428558982 2.822102997342554e-08 6.638153864156609e-20 6.55923102011735e-20 6.788005728283666e-20 7.578214925282753e-20 9.34114571425607e-20 1.5031587239134083e-19 1.0773966056274501e-18 2.753154079286527e-17 7.180537525854233e-16 1.6390419583550105e-14 3.249311634359323e-13 5.5805553652103594e-12 8.448873878633709e-11 1.1079899081189407e-09 1.241818025242965e-08 1.1800562098864859e-07 9.58552264207315e-07 6.6433231961146386e-06 3.779493552448777e-05 0.00017919084270098036 0.0006804237126760655 0.0020222377466237343 0.004411533848734857 0.006770720753339863 0.00682524822871419 0.004418054709850965 0.0019262047050371948 0.0009684207335897456 0.0005542217598414144 0.0003628241883165841 0.0002626877801206983 0.00020514619778259024 0.0001685330028883382 0.0001425204579216 0.00012160846524808433 0.00010265725698311399 8.382630340763077e-05 6.414261770771818e-05 4.3315861402109976e-05 2.1655564177825014e-05 2.6268817591155267e-09 1.2696708118804225e-20 1.2588892966485194e-20 1.3151541490313624e-20 1.4911733787091666e-20 1.8731724993630854e-20 2.874853976739305e-20 1.4689450286470854e-19 3.589341641795447e-18 1.0080433731696985e-16 2.5101818277179735e-15 5.459525125280522e-14 1.0333765535774518e-12 1.730951375218578e-11 2.5199541496342973e-10 3.144287603669073e-09 3.334423041319258e-08 3.029241475239556e-07 2.3534398433922982e-06 1.5043943313913103e-05 8.033297248928496e-05 0.00034492779613978157 0.0011614426446965515 0.002906047153261371 0.004845271253856061 0.004590553773446545 5.589962019982811e-07 2.3599756515730562e-07 1.5746043037554382e-07 1.035408920425468e-07 7.65558396316668e-08 6.132002820709894e-08 5.2324510156405054e-08 4.646925360519578e-08 4.2069200490357295e-08 3.805823480241881e-08 3.3712501755312185e-08 2.856417688090544e-08 2.2397568847638418e-08 1.528307807698479e-08 7.598234280567236e-09 8.702460529701737e-13 2.2340573871429923e-21 2.2231992841324062e-21 2.3453894057256217e-21 2.702054370013535e-21 3.4655343628637885e-21 5.241624835954679e-21 1.9817776818575902e-20 4.371555065209928e-19 1.3159378569567691e-17 3.5756762975751495e-16 8.537428858320499e-15 1.7820828817186779e-13 3.3046690486873275e-12 5.3436219895904465e-11 7.425925167460026e-10 8.789864109783701e-09 8.929273160039372e-08 7.771193079092937e-07 5.574014806656104e-06 3.345315376154597e-05 0.00016171584927801512 0.0006164906773923042 0.0017380133178229347 0.003382907356558633 0.0036621883099228142 1.8351463042831515e-07 8.509215086918406e-09 6.491353140114653e-09 4.81989953109755e-09 3.504121641596856e-09 2.501254274016466e-09 1.7537978644635386e-09 1.206141382611793e-09 8.105710345252055e-10 5.286054105257168e-10 3.3044775786829004e-10 1.9378894640058344e-10 1.0242407686031083e-10 4.487964008841383e-11 1.2983824434470704e-11 3.2475026512944907e-16 3.56347499432589e-22 3.5597553327956294e-22 3.79351657120414e-22 4.442461846600523e-22 5.824210877258133e-22 8.853187307546457e-22 2.6341747166167625e-21 4.9168177344797597e-20 1.5742151051251928e-18 4.6683915600156963e-17 1.2244805667983384e-15 2.8207295159853463e-14 5.794664694637938e-13 1.0412948325583562e-11 1.6121959371023672e-10 2.129996571786478e-09 2.4182658460208037e-08 2.3544528468875285e-07 1.8905688749791598e-06 1.2698126807672862e-05 6.875945433547893e-05 0.000292608182762356 0.0009337769812957564 0.00197083419539786 0.002826386399706066 0.0023953361808950113 0.0019493242055231648 0.0015246296553504677 0.0011616442325162728 0.0008666783881363017 0.0006346462258362532 0.00045619663828761376 0.0003213157209610548 0.00022083799991120084 0.00014699813288618032 9.35339584473013e-05 5.559757897364768e-05 2.9571835082654308e-05 1.2845755004452534e-05 3.5329081632628883e-06 1.0545231816157092e-11 5.059388362535605e-23 5.07428487327931e-23 5.464011091449542e-23 6.506804179932182e-23 8.727376722458971e-23 1.3486197787409756e-22 3.387248869986739e-22 5.0399431163419295e-21 1.6949644168545202e-19 5.485857542603169e-18 1.5818553623152338e-16 4.024754900548292e-15 9.166081799331066e-14 1.831551289205509e-12 3.16028375229888e-11 4.659741215122393e-10 5.907965075161054e-09 6.423527892691013e-08 5.756045704557171e-07 4.305830248807755e-06 2.5883104498114564e-05 0.00012207344354757047 0.00042539576858704976 0.0010199892747022722 0.0015253343305913606 0.0015830692727945746 0.001315028093287575 0.0010430289488903657 0.0007994754145635472 0.0005981023947263036 0.0004387475861335204 0.0003162338515355831 0.00022393565672454083 0.00015542871585026968 0.00010513727955714383 6.852452732662006e-05 4.2097993727463354e-05 2.3347222023849418e-05 1.0651892699157116e-05 3.0905316617193544e-06 9.494762962311865e-12 6.246607011217712e-24 6.29086357746217e-24 6.846688461609851e-24 8.29384043758628e-24 1.1389372528592524e-23 1.8012184309571506e-23 4.073137852387077e-23 4.633989940910279e-22 1.6056144285970517e-20 5.669314407308714e-19 1.7987033247950183e-17 5.0592440610109505e-16 1.278383103401371e-14 2.84230115635015e-13 5.46745233320533e-12 8.995783243762312e-11 1.272613084653744e-09 1.5422378969960412e-08 1.537071586359378e-07 1.2733315791227046e-06 8.43303924769629e-06 4.340050035005197e-05 0.00016418097081297034 0.00041894854994811687 0.0006848265831719946 0.0007529020377649026 0.0006906449590789954 0.0005662334654254545 0.0004426424599202736 0.000335398519622732 0.0002488411440359303 0.00018180466223701336 0.00013122589472752263 9.364686683284613e-05 6.58798755276473e-05 4.5252872482150844e-05 2.9693246654504433e-05 1.7784777205067683e-05 8.823775454491029e-06 2.791507298262307e-06 8.727353527298258e-12 6.501405166100357e-25 6.575612485933419e-25 7.234977602080029e-25 8.918739485063042e-25 1.2546900667587733e-24 2.039100496145736e-24 4.367926595477542e-24 3.741836