# vtk DataFile Version 3.0
vtk output
ASCII
DATASET RECTILINEAR_GRID
DIMENSIONS 41 41 1
X_COORDINATES 41 double
0 1 2 3 4 5 6 7 8 9 10 11 12 13 14 15 16 17 18 19 20 21 22 23 24 25 26 27 28 29 30 31 32 33 34 35 36 37 38 39 40 
Y_COORDINATES 41 double
0 1 2 3 4 5 6 7 8 9 10 11 12 13 14 15 16 17 18 19 20 21 22 23 24 25 26 27 28 29 30 31 32 33 34 35 36 37 38 39 40 
Z_COORDINATES 1 double
0
POINT_DATA 1681
FIELD FieldData 1
Concentracao 1 1681 double
1.0 1.0 1.0 1.0 1.0 1.0 1.0 1.0 0.9999999999999999 0.9999999999999999 0.9999999999999999 0.9999999999999998 0.9999999999999997 0.9999999999999996 0.9999999999999998 0.9999999999999998 0.9999999999999999 0.9999999999999999 0.9999999999999999 0.9999999999999999 1.0 1.0 1.0 1.0 1.0 0.9999999999999998 0.9999999999999998 0.9999999999999999 0.9999999999999999 0.9999999999999998 0.9999999999999999 0.9999999999999998 0.9999999999999998 0.9999999999999998 0.9999999999999999 0.9999999999999997 0.9999999999999996 0.9999999999999989 0.9999999999682174 0.9999920563578127 0.0001680270633423092 1.0 1.0 1.0 0.9999999999999999 0.9999999999999996 1.0 1.0000000000000002 1.0000000000000002 1.0000000000000002 1.0 1.0000000000000002 0.9999999999999999 0.9999999999999998 1.0 0.9999999999999994 0.9999999999999991 0.9999999999999991 0.9999999999999992 0.9999999999999991 0.9999999999999991 0.9999999999999993 0.9999999999999991 0.9999999999999991 0.9999999999999988 0.9999999999999991 0.9999999999999988 0.9999999999999989 0.9999999999999989 0.9999999999999989 0.9999999999999991 0.9999999999999991 0.9999999999999991 0.9999999999999989 0.9999999999999989 0.9999999999999989 0.9999999999999989 0.999999999999999 0.9999999999999983 0.9999999999684581 0.9999920797916647 0.00016802706338043334 1.0 1.0 1.0 1.0000000000000002 0.9999999999999998 1.0 1.0 0.9999999999999997 0.9999999999999998 0.9999999999999996 0.9999999999999993 0.999999999999999 0.9999999999999991 0.9999999999999993 0.9999999999999993 0.9999999999999991 0.9999999999999991 0.9999999999999988 0.9999999999999987 0.9999999999999984 0.9999999999999982 0.9999999999999983 0.9999999999999982 0.9999999999999984 0.9999999999999984 0.9999999999999987 0.9999999999999987 0.9999999999999984 0.9999999999999984 0.999999999999998 0.9999999999999982 0.9999999999999982 0.9999999999999981 0.9999999999999981 0.9999999999999979 0.999999999999998 0.9999999999999979 0.9999999999999976 0.9999999999689226 0.9999921175290635 0.00016802706376632667 1.0 0.9999999999999999 1.0 1.0 1.0 0.9999999999999998 0.9999999999999997 0.9999999999999998 0.9999999999999996 0.9999999999999996 0.9999999999999992 0.999999999999999 0.999999999999999 0.9999999999999992 0.999999999999999 0.9999999999999989 0.9999999999999986 0.999999999999998 0.9999999999999973 0.9999999999999971 0.9999999999999967 0.9999999999999959 0.9999999999999953 0.999999999999995 0.9999999999999943 0.9999999999999938 0.9999999999999931 0.9999999999999925 0.9999999999999919 0.9999999999999915 0.999999999999991 0.9999999999999906 0.9999999999999903 0.9999999999999907 0.9999999999999917 0.9999999999999932 0.9999999999999948 0.9999999999999959 0.9999999999693149 0.999992130066012 0.00016802706401916742 0.9999999999910376 0.999999999990342 0.9999999999886108 0.9999999999856882 0.9999999999813821 0.999999999975569 0.9999999999681735 0.999999999959164 0.9999999999485415 0.9999999999363272 0.9999999999225513 0.9999999999072464 0.9999999998904419 0.9999999998721613 0.9999999998524237 0.9999999998312437 0.9999999998086317 0.9999999997845951 0.999999999759142 0.9999999997322802 0.9999999997040213 0.9999999996743854 0.9999999996434086 0.9999999996111555 0.9999999995777464 0.9999999995433995 0.9999999995085105 0.9999999994737873 0.9999999994404913 0.9999999994108342 0.999999999388574 0.9999999993801261 0.999999999394467 0.9999999994480285 0.999999999549731 0.9999999997013304 0.9999999998261254 0.999999999922223 0.99999999994284 0.9999920428799753 0.00016802706395268373 0.9999957014661779 0.9999955512143732 0.9999952089704357 0.9999946829856161 0.999993997300841 0.9999931809988457 0.9999922641072596 0.9999912725535128 0.9999902270331387 0.9999891432936732 0.9999880328191773 0.9999869038339272 0.9999857620155627 0.9999846112793045 0.9999834542298165 0.9999822926269578 0.9999811276418435 0.9999799600590364 0.999978790506217 0.9999776195028759 0.9999764476764366 0.9999752758295269 0.9999741053010999 0.9999729384152088 0.9999717791506549 0.9999706344317628 0.9999695164624526 0.9999684465419223 0.9999674618888501 0.9999666269448796 0.9999660557320516 0.999965931220542 0.9999666520886442 0.999968375615803 0.9999743797181688 0.9999809159278781 0.9999921054627111 0.9999972141331582 0.9999993188629857 0.9999916743448568 0.00016802706329233883 0.04260957475423179 0.04243053966565381 0.041959011258165486 0.04125664009321756 0.04039586596814092 0.03943637859356362 0.03842000198330797 0.03737250347317189 0.03630717794529012 0.0352338227628467 0.03415579990807835 0.03307596374740015 0.03199634989715906 0.030916355495130336 0.02983725116212992 0.028758781836523896 0.027681153422626385 0.026603589312804918 0.02552580942032866 0.02444753558486786 0.023368979918586573 0.022288934170309797 0.021206700521497066 0.020122087883476643 0.01903400416664217 0.017940493185148454 0.01684062850668235 0.015731764589828175 0.014610990764562654 0.013472029449793865 0.012310828354170179 0.01110303667496435 0.009890481519122316 0.008320265972504425 0.008510447476123976 0.9999610380085125 0.9999808244517875 0.9999938905682166 0.999998448967152 0.9999909506401943 0.00016802706169554712 0.0009144792786080185 0.0009071655621884661 0.0008879798861224724 0.000859563141945936 0.0008250744519246558 0.0007872846294174602 0.0007484770638552699 0.0007104322560617475 0.0006745610354595294 0.0006418065211189454 0.0006124445280936209 0.0005861079074426776 0.0005620169790150725 0.0005393303768307115 0.0005174543633173491 0.0004960805386558606 0.00047509370362756897 0.000454505913944681 0.0004343800043764742 0.00041477963196655216 0.00039575787254289275 0.00037736143139763777 0.00035962096775471133 0.0003425789475456352 0.000326250172118679 0.00031064614719863716 0.00029578131715946184 0.00028165511872449113 0.00026825602358356736 0.0002555570387827529 0.00024352852354355984 0.00023211199047806514 0.00022122964361725637 0.00021050723603228426 0.0003820089924433716 0.9999603800203357 0.9999810306160634 0.9999929747550422 0.9999982143178208 0.9999898324639419 0.00016802705857484258 1.3109034898670582e-05 2.2026351447077284e-05 0.00016657400085911558 0.001251925729487713 0.006391585575859831 0.02361994906799056 0.06701106639399736 0.1520994789238912 0.2850294954177772 0.4530377611680683 0.6266628927425518 0.774505722857296 0.8788465171867187 0.9402552406561402 0.9707104368378396 0.9837801222610401 0.9890086012188748 0.9913208548889638 0.9926866137279634 0.9937354547279063 0.9946352591032835 0.9954290975703137 0.9961324218269966 0.9967548678989852 0.9973042586711837 0.9977872834297797 0.9982097081501359 0.9985765589810042 0.9988922324172909 0.9991605454275845 0.9993849312432176 0.9995684933583056 0.9997138945766069 0.9998241872984067 0.9998996661260668 0.9999521696369994 0.9999426476819299 0.9997526207461864 0.9982837144266431 0.9719305960532704 0.0001679888080844834 3.170672846190774e-06 1.2079270500956728e-05 0.00015387825928510208 0.001220549880485137 0.0062931994273943215 0.023373537721080893 0.06658380299013593 0.15167450187192885 0.2851402740360672 0.45443255267890476 0.6299277897850849 0.7796804872225159 0.8854200964296407 0.9474550594315942 0.9778574123530007 0.9904523954601234 0.9950263333021243 0.9966503684170285 0.9973575407740068 0.997796491237072 0.9981373486623579 0.9984207706199862 0.9986591241275489 0.9988592119501924 0.9990263499685728 0.9991649679216638 0.9992787425526114 0.9993706231230006 0.9994428343197544 0.9994968361900096 0.9995332033762956 0.9995513757997737 0.9995489392056645 0.9995196175573843 0.9994539385571897 0.9992661090504107 0.9987165426564993 0.9966183716278383 0.985435003875704 0.9074260238876273 0.000167856740509588 1.0912882673033356e-06 9.394706504155003e-06 0.00014205503428099735 0.0011492180022597467 0.0059858060665341955 0.0224294272728708 0.06442422115576578 0.14788020361370996 0.27992813499311037 0.4488241552423701 0.6252694901853297 0.7769092768398458 0.8846370378012146 0.9481227583174803 0.9792623428602341 0.9920548466635077 0.9965392912386973 0.9979667188845762 0.9984578716617484 0.998692182095411 0.9988468090010187 0.9989620662929416 0.9990482473283401 0.9991097760396566 0.9991494991857994 0.9991692866381018 0.9991700148269167 0.9991514175357206 0.9991117582422858 0.9990472212308829 0.9989507150459349 0.9988095050220201 0.9985994195929 0.9982736795256609 0.9977108691500131 0.9965497499820334 0.993709614357882 0.9855431169918435 0.9566761006915879 0.8240542564672437 0.00016758447501615564 4.4044822093938707e-07 7.835920469418072e-06 0.00012745384174205076 0.0010488011569584278 0.00553807277413093 0.02102160811549609 0.06112123560659484 0.1419001502365898 0.27138912484813676 0.4390817244769487 0.6163349004417836 0.7703457684283854 0.8808597162144736 0.9465627157407427 0.9790014955188315 0.992345498761474 0.9969575735405293 0.9983346549928395 0.9987215923178238 0.9988435563785856 0.9988896183726058 0.9989011466806584 0.9988867337666978 0.9988484199410096 0.9987862896018331 0.9986989211008365 0.9985830626813271 0.9984329400613623 0.9982390345143299 0.9979858672932254 0.9976479185652607 0.9971811774237794 0.9965053871081611 0.9954591169857774 0.9936757889891616 0.9902718184962263 0.9829563396835176 0.9650351981786787 0.913748404831203 0.738675608526937 0.00016713557377095835 1.9485307574164033e-07 6.511936542257992e-06 0.00011056118904036875 0.0009275593531166076 0.004985770841149261 0.019251099441614655 0.05688694292628463 0.1340824756139307 0.2599872390727193 0.4257525917100983 0.6037320041503885 0.7606601838492354 0.8748155952376322 0.9435285424753126 0.9778164247065924 0.9920189800030109 0.9969093335339589 0.9983086377954148 0.9986300511042782 0.9986624455858569 0.9986123781587384 0.998523504246516 0.9984026387755817 0.9982488413050856 0.9980584023073865 0.9978249794385863 0.9975386584481784 0.9971842699005786 0.9967384335038306 0.9961645121154723 0.9954030300583447 0.9943532876594946 0.9928347179337081 0.9904997670373198 0.9866338346319533 0.9796720203584062 0.9659407911842683 0.9359861158503302 0.8627920461728406 0.6590334199758412 0.00016647789163428076 9.14471898095231e-08 5.263721602705021e-06 9.24665095237157e-05 0.0007938057916517248 0.004362109583804588 0.01720647151692132 0.051891888706495776 0.12466110855036872 0.24595589149300592 0.40899999756909605 0.5875323042995687 0.7478846551233514 0.8665613454865212 0.9391408836971488 0.9758751172527751 0.9912611406395017 0.9965725066884897 0.9980457192716112 0.9983149641824128 0.9982546933600556 0.9980956859729052 0.9978851409756494 0.997627672860506 0.9973182908048674 0.9969478618820782 0.9965027976520259 0.995963134185639 0.9952993199802596 0.9944667731569407 0.9933965367351592 0.991978457288853 0.9900294878807152 0.9872312287844434 0.9830006117428939 0.9762144970026155 0.9645918034592167 0.9432166585086031 0.9007180294220727 0.8085551135231039 0.5882669267873214 0.0001655830309658357 4.467656028424739e-08 4.0963050758130965e-06 7.435452746486892e-05 0.0006559158642691667 0.003701497560710893 0.014982790476376292 0.04631602978210854 0.11387667908664914 0.22950098450820394 0.3888852593590153 0.5676337348557325 0.731827784182016 0.8559216134883041 0.9333032159711685 0.973164332545389 0.9901080766219712 0.9960002681206656 0.9975969449571953 0.997817036562949 0.9976478804446606 0.9973529790758432 0.9969845827501767 0.9965444674660106 0.9960221588589487 0.9954010784632659 0.9946575984826853 0.9937578747370277 0.9926526172003195 0.9912684701945857 0.9894934945616836 0.9871519711121274 0.9839586945698264 0.9794335203755986 0.9727360861829211 0.9623331168410394 0.9453027166678138 0.9157943100469759 0.8614146541344143 0.7542056393861114 0.5264166095115136 0.00016442422325149868 2.2444919535243426e-08 3.049584148098418e-06 5.729767298472607e-05 0.0005217075626772212 0.0030376223386567964 0.012676845722705358 0.04035420490471907 0.10199939749996487 0.21085448885934124 0.365469543668098 0.5438622232925255 0.7121657941558618 0.8425787420158428 0.9257977173096377 0.9695780858291584 0.9885301824907653 0.9951979719041438 0.9969761836545634 0.9971465527499863 0.9968439532970244 0.996375693764392 0.9958011448933262 0.9951184753185534 0.9943100492641476 0.9933495670864957 0.9922004443472535 0.9908111119498125 0.9891074697350665 0.9869806309574451 0.9842670346187301 0.9807148422254148 0.9759254822694998 0.9692495735029908 0.9595953641208778 0.9450643545606828 0.9222333438403395 0.8846744809135797 0.8197553041143691 0.7013762953936526 0.47247309696987133 0.0001629749944362447 1.149473804806216e-08 2.1600010205472434e-06 4.2139040753878954e-05 0.000397893590365941 0.0024021043888048477 0.010387286013930047 0.03421979406313715 0.08934618879016688 0.19031580360153968 0.338850498981401 0.5160274845119162 0.6884996908142733 0.8260942655213885 0.9162969515862053 0.9649361053940048 0.986453916807328 0.9941455448058624 0.9961812527549807 0.9963021194915749 0.9958352906381642 0.9951466957222442 0.9943057340882626 0.99330620872895 0.9921214348892416 0.9907130531583873 0.9890287195998431 0.9869957105097469 0.9845109512073628 0.9814251097058361 0.9775175845085262 0.9724553255637971 0.9657246655137753 0.9565142127135148 0.943509478438145 0.9245211316046589 0.8957910446478058 0.8506491923881557 0.7768167884828431 0.6507332916251343 0.4251196147562922 0.00016120683508533576 5.961359461018111e-09 1.4474343030865146e-06 2.9432084686333008e-05 0.0002896002191930515 0.0018221313220517428 0.008207762916348218 0.02813290641467609 0.07627664312447677 0.1682697258688831 0.3092171678047453 0.4839604320041745 0.6603500578744944 0.8059098465601041 0.9043600747365461 0.9589788516492976 0.9837627730750387 0.9928031215117723 0.9952010367579842 0.9952775934476719 0.994610735171548 0.9936449732344227 0.9924639806587117 0.9910564824402043 0.9893847852983799 0.9873961747420632 0.9850200360639123 0.9821600015869824 0.9786813667099268 0.974392066958261 0.9690127858320118 0.9621305588753458 0.9531236905628357 0.9410384407025614 0.9243816922257598 0.9007620381741505 0.8662539358000302 0.8142320810426321 0.733173225641701 0.6023508413349344 0.3830833271581657 0.000159087054497076 3.1138904908927957e-09 9.119783015184371e-07 1.940652756103539e-05 0.0001999836942652944 0.0013184676435799637 0.0062216427658315435 0.02231612879081761 0.06319504161441925 0.14520087769717163 0.27686644779009945 0.4475405641421069 0.6271941154101103 0.7813417364492792 0.8894055381289101 0.9513474245991782 0.9802880471464844 0.9911092965707102 0.9940174830353711 0.9940650287908612 0.9931581147706278 0.9918472496943456 0.9902364348605383 0.9883087343465651 0.9860132612300769 0.9832807804342545 0.9800207469568478 0.976111946216036 0.971387897727255 0.9656145470066999 0.9584572744209432 0.9494306452153041 0.9378202136240832 0.922559171195728 0.9020296847816525 0.8737321518469069 0.8337263847523126 0.7756595310411053 0.689028612579381 0.5559821313047587 0.34524710950325505 0.0001565760461124562 1.630600779724188e-09 5.364819927159241e-07 1.1995894241305133e-05 0.0001301147898768726 0.0009039132365791039 0.004495259589844076 0.016978921632124784 0.05053947487813018 0.12171178349266776 0.24228374785415863 0.4067861836010996 0.5885026502177979 0.7515623540513243 0.8706775152656375 0.9415493031591639 0.9757887466135393 0.9889742587276437 0.9926049288246259 0.9926561063268774 0.9914659557286233 0.9897288210542338 0.987577632070718 0.9849892006139171 0.9818971597947107 0.9782138936640128 0.9738283596119988 0.9685956625365154 0.9623207070685278 0.9547331667179286 0.9454521331343229 0.9339336300725711 0.9193934568226096 0.9006886796527734 0.8761359785617063 0.8432193012146798 0.7981186758805983 0.7349260649619609 0.644313919961675 0.5112149333585722 0.31066783464448844 0.00015362298860051936 8.523914286671367e-10 2.9233461561664203e-07 6.8952723992477675e-06 7.911091587765505e-05 0.0005824008203890379 0.0030716279173013295 0.012299491075770627 0.038752830861269995 0.09851326916882541 0.20615976976942976 0.36191653598486806 0.5437794126862474 0.7156060390886554 0.8471987496941182 0.9289090718423789 0.9699207063264548 0.9862665021186416 0.990927181418433 0.9910431424030985 0.9895251120768566 0.9872642649583521 0.9844345944919204 0.9810057820745643 0.9768931942440903 0.9719894458245856 0.9661645898329578 0.9592554104794757 0.9510467965258056 0.941244529707469 0.929437928582719 0.9150464336040739 0.8972459404261663 0.8748606607303646 0.8462025385056267 0.8088256091867033 0.7591430509776623 0.6918177942384547 0.5987740016945173 0.4675571501501986 0.2785541814714661 0.00015016094114796583 4.430448679988696e-10 1.4629594135569788e-07 3.6519166024527904e-06 4.452357132673654e-05 0.0003492844615910215 0.001966252378525034 0.00840659839040457 0.02825194209161286 0.07641330288738898 0.1694560319247342 0.313460499829414 0.4926774364275288 0.6723864816692292 0.8177143365997334 0.9124909890710016 0.962183423300299 0.982789507268166 0.9889316407649285 0.9892200044283757 0.9873315116374446 0.984429359667435 0.9807454925387152 0.9762408613012642 0.9708083511343252 0.9643205176521739 0.956634479464177 0.9475808046136811 0.936942744037136 0.9244257237198638 0.9096159007740535 0.8919274847086077 0.8705332182661467 0.8442705125200032 0.8115074414537176 0.7699443521506137 0.7163181095294642 0.6459470978794944 0.5520261343827426 0.42449957792978527 0.2482598023157925 0.00014609844753747737 2.2808867343977162e-10 6.662431051611556e-08 1.7642472415269518e-06 2.2946089997094724e-05 0.00019282398259995405 0.0011659639347713921 0.005361924153112376 0.019378132046726892 0.05625519549204583 0.1334020597312445 0.2623863163033837 0.4351629729175369 0.6207622129547619 0.7806402278319843 0.8909927106266329 0.9518364650912976 0.9782420410773309 0.986537704323067 0.9871829236208886 0.984890719720472 0.9812053425507958 0.9764399373342649 0.9705423182410515 0.963376430100844 0.9547964504025093 0.9446601273272051 0.9328183347831567 0.9190892398435935 0.9032187011421146 0.8848321901752662 0.8633792394402584 0.8380712161840507 0.8078042792663496 0.7710559963770244 0.7257356249636281 0.6689705979854123 0.5967819215568426 0.5036035476392431 0.381544293727546 0.21925627462410213 0.00014130686005059572 1.1585289923113455e-10 2.735747473004344e-08 7.69201537511838e-07 1.0702774265968253e-05 9.676059964963073e-05 0.0006321707506405302 0.0031497145177516736 0.012345241013522875 0.03883240962606874 0.09947605674003009 0.21023499784726715 0.3717534677467223 0.5597161902125887 0.7340254533723644 0.8625969876830578 0.937764046162497 0.9721451841574471 0.9836139576824376 0.9849306798301427 0.9822264344165182 0.9775882400340404 0.9714427734413669 0.9637135586839487 0.9542230878436284 0.9428123398899138 0.929370303699815 0.9138243273535994 0.8960972982993315 0.8760484339295682 0.8534037405090696 0.8276970592289306 0.79821680788452 0.7639533222492717 0.7235320296424302 0.6751128608977308 0.6162506391268188 0.5436785230644743 0.4529983318695834 0.3382276358470513 0.19111955790437377 0.00013559821589138388 5.782092970251587e-11 1.0041616905833743e-08 2.994676194772228e-07 4.463023568812472e-06 4.353846318326066e-05 0.00030881094407288206 0.0016779975306015892 0.007192274051060295 0.02475561963379907 0.06926922545729529 0.15919504842446297 0.30385031669343604 0.4886748153152275 0.6756205158593973 0.8247833794896301 0.918248451050713 0.9637092831897118 0.9799305162465594 0.9824606885682419 0.979393936784186 0.9736085382469808 0.9656887634700791 0.9555054786030726 0.9428131308991539 0.927450229435139 0.9094074864847028 0.8888037087397352 0.8658105497449021 0.8405224770451861 0.8128504901128923 0.7824532437570797 0.7487104977290089 0.7107131220136773 0.6672420397279853 0.6167217896626614 0.5571372032067688 0.4859043211001298 0.39968795373747107 0.29413961508405034 0.16351746217738974 0.00012868500715521394 2.8231861086422047e-11 3.270606668025055e-09 1.030778444316402e-07 1.6440031417657291e-06 1.7322527499814294e-05 0.0001337906204760721 0.0007969349806951677 0.0037630846796287937 0.014308958961884978 0.044240101811967865 0.11202557751217104 0.23410992722580926 0.40809758645431593 0.6031537535355656 0.7741453976845015 0.8906164723342104 0.9515835465209533 0.9750572166884641 0.979751724043672 0.9765008937790939 0.9693695415999218 0.9591603406704751 0.9456215969243539 0.9283700522255836 0.9072700925993408 0.8825526055876927 0.8548180091256078 0.8247527541932055 0.7929055595079526 0.7594561640228065 0.7241644132646156 0.6864461503893152 0.6454367166734885 0.6000386421181397 0.5489118752255886 0.4904394807264419 0.4226562954697751 0.34315033853087823 0.24892411860439176 0.13619384190877637 0.00012009479722189166 1.3420367279934674e-11 1.0157030570126164e-09 3.357466768188989e-08 5.692844660812079e-07 6.4333903284781405e-06 5.3720542490555455e-05 0.0003484473187320829 0.0018027033029984216 0.007547606219671257 0.02578235182881953 0.07223831640840189 0.16682976564523164 0.3203623179387833 0.5150916536000484 0.7063792028479353 0.8507162204920239 0.9333836907252387 0.9681380087809626 0.9767068016708309 0.9737305562782035 0.9651194937821665 0.9519850303101367 0.933770530148806 0.9097732913778415 0.8798675627067609 0.8449961630346384 0.8067053144151247 0.766976157120052 0.7270957272407911 0.6874402059348018 0.6476774749797309 0.6070199751366983 0.5645095844074742 0.5190778684866212 0.4695576228578425 0.4146650668599922 0.3529593004391048 0.28278710985321487 0.202212293638062 0.10892441332973245 0.00010896064657950493 6.176190225918804e-12 3.039134899400417e-10 1.046763856998944e-08 1.8794706282651428e-07 2.2693574744173686e-06 2.041078899241246e-05 0.00014363975749080756 0.0008113530115391378 0.0037284837882740228 0.014035106786895374 0.043443291661850285 0.11089927681828332 0.23501870396847935 0.41459055432235264 0.6166546767152631 0.7914551499175733 0.904817771150568 0.9573853123324336 0.9729822036863682 0.9713412886248918 0.9613711526585702 0.9446635384981288 0.9198933756106248 0.8854085836810975 0.8411728603935806 0.7890693368396593 0.7345320358527199 0.6814012653932371 0.6321924461622207 0.5871231573747363 0.544686859614065 0.5035117267916066 0.4623131823566581 0.41993675884286974 0.37530661963588396 0.32738837317365416 0.27515198090745 0.21752269079134318 0.15335213130690922 0.08136123016732218 9.348003061213547e-05 2.733955057357433e-12 8.712659972300853e-11 3.103021106096521e-09 5.879155669018044e-08 7.559760222541707e-07 7.300410281923515e-06 5.5569287273956836e-05 0.0003416892084557122 0.0017186496650430432 0.007112051846080348 0.024277096462017787 0.06846044449931259 0.1603049533392651 0.31163348253020223 0.5071712887448904 0.7032067543513504 0.852503401848497 0.9355076772859818 0.9668859503496123 0.9695372547260492 0.9590200155075086 0.9385796062245921 0.9049939963826407 0.8536415540163366 0.7827890465567358 0.7015974674678565 0.616176775700432 0.5437075781295717 0.48774711760344047 0.441260329538428 0.4009058960000043 0.3641616935163778 0.32929287346150027 0.2949834286832702 0.2602028412315587 0.22410370941000363 0.1859531416213526 0.14509407767941224 0.10090502459278858 0.05277483162206143 7.003444012123041e-05 1.155184196592269e-12 2.3794650229194272e-11 8.678441986937867e-10 1.7295467083621703e-08 2.3617238253806017e-07 2.4421845164273364e-06 2.0055270563081034e-05 0.00013391170805392456 0.0007355196873395857 0.0033389273169670075 0.012547716878422044 0.039048489306850696 0.10104232291972734 0.2169604704291552 0.38855931541878796 0.58802462294479 0.7674636362703109 0.8891258060102627 0.9490166293048207 0.9652752460202804 0.9585568752293099 0.9365418525851764 0.8938186840895616 0.815343199655747 0.6875618429077474 0.5135884363594773 0.38410544982197103 0.31208181710125826 0.26393808940865454 0.22918729183540193 0.20183772691769145 0.17894541801542233 0.1586575608140556 0.1397934164571827 0.12153691723976812 0.1033023351103853 0.0846519271898054 0.065248714761024 0.044823098115301635 0.02315077948695811 3.509060455172039e-05 4.616776787103119e-13 6.1546517078992295e-12 2.2688734528669474e-10 4.74253801391486e-09 6.860549576655421e-08 7.579888054442221e-07 6.701277254992411e-06 4.849383064176948e-05 0.000290311187654505 0.0014432171385131668 0.005961804998588837 0.020451880394227618 0.058457014259545456 0.13876796049263285 0.27437645597616644 0.4563329645082579 0.6487276631552207 0.8066962238930527 0.9058408189825496 0.949344990116763 0.9557181946032577 0.9381490938972485 0.8949360438066075 0.7999064481926731 0.5359627689768995 0.0009404400500702681 0.000597639492519449 0.0005921105143119401 0.0005422291913415199 0.0005099943947262769 0.0004821150095183256 0.0004570573777235358 0.0004316051470647275 0.00040339994987861536 0.0003703746474852251 0.00033071816300058647 0.000283004328035771 0.00022622449571677887 0.00015991297120300158 8.424911487998004e-05 8.233940820609554e-08 1.7260234669205713e-13 1.4993533446582195e-12 5.4840034830269985e-11 1.1990796269788673e-09 1.833895873687017e-08 2.160961123833101e-07 2.0533664656557847e-06 1.6079301007592668e-05 0.0001047682776111514 0.0005695935219400376 0.002583350301752319 0.009759333482983946 0.030792419634021923 0.08081901288527442 0.17670023965180606 0.3242879787240558 0.5061042808162621 0.6842712605324216 0.8226800589221499 0.9056381729821555 0.9395327118866863 0.937377513109506 0.9032519010386746 0.8142452129587383 0.574986065072254 0.0005171588013415991 4.8532863438028875e-05 4.7703041643121874e-05 4.6805326841767e-05 4.5855007726418945e-05 4.4864529665150074e-05 4.383576052273902e-05 4.276039288350054e-05 4.162142771717064e-05 4.038987503358232e-05 3.901757387104206e-05 3.742037089091783e-05 3.543291404777458e-05 3.2651602545736744e-05 2.7556487974415285e-05 1.7025826610655954e-09 5.954678540089933e-14 3.4220155270404235e-13 1.2090926764050096e-11 2.7581714933432207e-10 4.452482172467661e-09 5.587783078730654e-08 5.699888920069101e-07 4.82467829111234e-06 3.418147618115028e-05 0.00020305168243314647 0.0010102585228927102 0.0041997879604959995 0.014618634158480408 0.04241204524955134 0.10259314372356775 0.20819492570039835 0.35835979972532045 0.5313412584610189 0.6933621977348197 0.8162927947255095 0.8900523832921338 0.918470328138494 0.9071455062991943 0.847294675105226 0.6382360356780254 0.6379509057825661 0.6374580040447357 0.6368303258949164 0.6360934445657552 0.635250587666036 0.6342972960399389 0.6332203820897286 0.6319960292530374 0.6305839121088029 0.62891446485814 0.626860353113672 0.6241653823812227 0.6202261405834606 0.6131498468301398 0.5915214212160969 2.735903271061482e-05 1.8632482773525525e-14 7.275724067087491e-14 2.3911450013504942e-12 5.67529079217943e-11 9.657174085760372e-10 1.2895123520469177e-08 1.4109199223549806e-07 1.2901621749281247e-06 9.933385540286316e-06 6.444786479908224e-05 0.000351615850608008 0.0016079168022508747 0.00617216430469026 0.019788765952186916 0.05296554529150847 0.11895456873260458 0.22635654131675756 0.36987689643419075 0.528524689804736 0.674534607305412 0.7865208120334566 0.855883418059725 0.8815508490874004 0.8611634352651746 0.7624760044009337 0.7111397637121326 0.6999917440975447 0.693544212954765 0.6893603009584472 0.6860438081457164 0.6830235918836768 0.6799272957717908 0.6764641066097755 0.6723536362198298 0.6672959987840316 0.6609567871566708 0.6529450390583553 0.6426699268888751 0.6284859796818743 0.599583904099137 2.7430634245022394e-05 5.170414607149523e-15 1.4289560320380706e-14 4.151407715069733e-13 1.0218267801858552e-11 1.8311338064726005e-10 2.5999442632320593e-09 3.050211350324122e-08 3.0124589348229077e-07 2.520550631566202e-06 1.7861457955540528e-05 0.00010687137065458447 0.0005376507057614563 0.0022760592962480066 0.008064128148066323 0.023883052756235784 0.05938160723467943 0.12504488983686685 0.2257301566167108 0.3549321611102895 0.4951300958132137 0.6251027853908114 0.7279172695306764 0.7947855258674338 0.8203567886222064 0.7953064539229676 0.7692063156442124 0.7520616182636775 0.7423731608062005 0.7354340902740865 0.729838031998779 0.7247255410955219 0.7195652040211038 0.7139338187946519 0.7074329978622845 0.6996368391490598 0.6900619119158755 0.6781407764224368 0.663116878053191 0.643293143314653 0.6082573239056225 2.7494929395800837e-05 1.2342486689514742e-15 2.549085387568132e-15 6.148472805380825e-14 1.5627685038798902e-12 2.947231041121882e-11 4.448665892493394e-10 5.5963975611746545e-09 5.971133635880034e-08 5.43171913259246e-07 4.2066279727548545e-06 2.7620064618782594e-05 0.00015296183281889025 0.0007145527414356118 0.0027988760115176584 0.009175117302177157 0.025262467522630092 0.05889599034636885 0.1175720707687275 0.20388266841535005 0.3122164212818717 0.42967270007523506 0.5406890166562734 0.631775694643101 0.694107539576651 0.7213236382786937 0.7299765330714972 0.7306029167483588 0.728595485116636 0.7254700242227815 0.7218361180009496 0.7179219384528074 0.713826297124189 0.7095758195824936 0.7050986153327774 0.7001305131341039 0.694060817979285 0.6857545793527724 0.6734103919062691 0.6541162438851641 0.6168916296346029 2.7553442850895452e-05 2.426718711790072e-16 3.9880592111913065e-16 7.459386570916988e-15 1.945425143145355e-13 3.859568818020365e-12 6.194207450634693e-11 8.359385538608306e-10 9.642794996025908e-09 9.545218585876978e-08 8.088070596090944e-07 5.834846149565423e-06 3.561734555125917e-05 0.00018382390495314023 0.000796883587508623 0.002893924939763191 0.008829455631192801 0.022801173164645236 0.0503610917197898 0.09640280098303297 0.16234151376270292 0.24431688837179236 0.3337204411262222 0.4197960094604436 0.492540251614248 0.5453254306413813 0.5795185161419071 0.6003621239522885 0.6120967841237935 0.6182981975454301 0.6213105773804998 0.6228487153073281 0.6241961318828578 0.626407440427989 0.6303321726431718 0.6364528880092383 0.6444847066557963 0.6527594992358289 0.6575386494871714 0.6524376