# vtk DataFile Version 3.0
vtk output
ASCII
DATASET RECTILINEAR_GRID
DIMENSIONS 41 41 1
X_COORDINATES 41 double
0 1 2 3 4 5 6 7 8 9 10 11 12 13 14 15 16 17 18 19 20 21 22 23 24 25 26 27 28 29 30 31 32 33 34 35 36 37 38 39 40 
Y_COORDINATES 41 double
0 1 2 3 4 5 6 7 8 9 10 11 12 13 14 15 16 17 18 19 20 21 22 23 24 25 26 27 28 29 30 31 32 33 34 35 36 37 38 39 40 
Z_COORDINATES 1 double
0
POINT_DATA 1681
FIELD FieldData 1
Concentracao 1 1681 double
0.0 9.325341678162867e-36 5.195067757150758e-30 3.654965344004391e-24 9.002838197125062e-19 2.246606348682416e-15 3.2684866870624056e-13 1.100462186371957e-11 1.4864828570103548e-10 1.0654232760977744e-09 4.788418388468611e-09 1.512316617858711e-08 3.58799301460481e-08 6.697107540686323e-08 1.0227886073286887e-07 1.3188117612825412e-07 1.437809236886156e-07 1.0992005926957762e-07 8.984337069386869e-11 3.85392654406997e-12 3.8420077690373716e-12 8.362041835419966e-11 2.378893813046444e-15 1.648275718295911e-15 1.169054603337705e-15 1.0867075981601431e-13 1.907990877486212e-11 5.019203695105078e-10 4.434421571893804e-09 1.864398265906221e-08 4.522236618326955e-08 7.178338429694828e-08 8.241098853149227e-08 7.546987688117307e-08 6.139592243694869e-08 4.9219612020214e-08 4.140199956958754e-08 3.689464714428244e-08 3.434624408980785e-08 3.299065181135787e-08 3.248889152067909e-08 6.476063441171405e-35 1.1656686423045263e-29 6.493839781919499e-24 4.568710334970833e-18 1.1253556749244524e-12 2.8082600689706495e-09 4.085611627314694e-07 1.3755787937210825e-05 0.00018581050255643758 0.0013317801250602409 0.005985527758055726 0.01890397216642473 0.04484994856249027 0.08371391018871466 0.12784867819494683 0.1648516020414938 0.17972629839169318 0.1374001814442795 0.00011230430321070656 4.817412012619897e-06 4.802513540774734e-06 0.00010452560656316793 2.973619645201868e-09 2.060346296145607e-09 1.4613194053803856e-09 1.3583855590715294e-07 2.3849905048486423e-05 0.0006274009632512627 0.005543031399288826 0.02330499696781042 0.05652800208538829 0.08972930215456965 0.10301381599385837 0.09433742044019126 0.07674496311292496 0.061524563807717085 0.051752540863983995 0.04611834582500019 0.0429328394585039 0.04123834775484915 0.04061114688974038 8.35253289153063e-29 3.524048314873608e-23 8.677439062051979e-21 7.984228767691553e-16 2.3293139418127525e-11 1.9195509796128657e-08 1.8187421471493808e-06 4.813181259491545e-05 0.0005517852466366416 0.0034796602321656308 0.013990397511602611 0.03964813599820462 0.084931535664642 0.1418474880333767 0.18962371474478573 0.20472839349979643 0.17118560674533392 0.0855027365730619 3.037684202948773e-05 7.002640840967663e-09 4.5765521283606097e-10 4.815499769516375e-06 3.2023672925614807e-09 2.4181496114624058e-09 3.5413399464418943e-09 1.4666164360449742e-06 0.00011390938552437518 0.002048779142930098 0.014126213871961842 0.04925830263190734 0.1020436072615906 0.14000965191423587 0.13884657464216899 0.10874632851411849 0.07491771870639534 0.05129526132660067 0.03813127340840081 0.031282773196225126 0.027666240787898706 0.02582537430853669 0.02517699162020612 5.697601304959144e-23 2.869803358564096e-17 2.622059152139791e-15 1.893195154421297e-12 1.0482454306142646e-09 1.820367890093319e-07 8.888732154506883e-06 0.00016439397221665555 0.0014939863564638173 0.00794536008405442 0.027828472732490648 0.06976577185842407 0.1322971293735124 0.19300427584425528 0.21945041884634667 0.19299472668461912 0.12216021903261544 0.04367557553160846 1.2298265430321772e-05 2.3833017646598076e-09 1.2966194887369384e-10 4.793991933754405e-06 1.8506287122865769e-07 3.2405905021272e-07 1.4172682108539852e-06 2.812675677308824e-05 0.0006108794680406047 0.006150375147368537 0.030137042167623935 0.08266337500942463 0.14177542101566254 0.16528882769661762 0.1406351858096934 0.09421705211160289 0.05502140551480603 0.03204523701618623 0.020929963841709916 0.01577541330171785 0.013262370202656602 0.01204235973029496 0.011627709804718167 1.278901506036425e-17 6.989589147400355e-12 9.008877080634854e-11 2.061927935808441e-09 7.501414571262603e-08 2.604060323638144e-06 5.4909703192938705e-05 0.0006312850476100431 0.004224261186325188 0.018024126398585628 0.05299537362640958 0.11394613870893597 0.1853388849436867 0.2290047205260044 0.21581992549164336 0.15230852329490513 0.07452871131133686 0.01962038791639967 4.508925190896954e-06 7.92934356209845e-10 1.1804859451965448e-10 4.793562863217467e-06 4.091952493263472e-05 5.744402958247581e-05 0.00013136936556822445 0.0005696996283181367 0.003605589516270814 0.018413100374982953 0.06006084490668341 0.12473788595391794 0.17322939361226017 0.16964771649915797 0.12346616734408075 0.07101865772356072 0.03539019849409394 0.017582372954804103 0.01007668988337976 0.006979277024285702 0.005587769101041624 0.004942938951867195 0.004729873325133215 2.3376788312518325e-14 1.3370212335120856e-08 7.203844234419973e-08 4.6476772886346524e-07 4.0729544828824e-06 4.1990340004534865e-05 0.0003867806941379582 0.002612552295964056 0.012210359042007674 0.04005462857997724 0.09541270708701995 0.1703559524332809 0.23163780758709027 0.23709236430133296 0.18257478573531277 0.10325948553970245 0.039448793564594964 0.007859274353795685 1.5494199113768713e-06 2.4618590884395805e-10 1.0394433509742481e-10 4.790536225886737e-06 0.0010447275311480755 0.0013276520419451873 0.0022795733562795237 0.0055419621425607385 0.01696253568358371 0.04888420475135928 0.1073447568669057 0.16800480097177461 0.18801237710264185 0.15441639688587203 0.09638555130866434 0.04796544652684065 0.02062651312397657 0.008824690234946288 0.004457037112016478 0.0028456141345236095 0.002176202856104037 0.0018792267573210478 0.001783482079557422 2.9615303540741743e-12 1.73796946154309e-06 6.516371999974367e-06 2.4304961824858538e-05 0.00010521601398124737 0.0005130843029499203 0.0024752350030286126 0.010227883290444734 0.03320362484002751 0.08224508475273888 0.15542902067021266 0.2256738392837758 0.2517124085098828 0.2113703459882672 0.13246811241035755 0.06020194268197543 0.01815671915052956 0.002784447803115344 4.804925417276637e-07 6.960041305141518e-11 8.750192417814783e-11 4.761485956172255e-06 0.00874206699572901 0.010395010398272508 0.015102106524502185 0.026822477951117033 0.05365793288356751 0.10249653863895684 0.1615304477841583 0.19549207713012837 0.1785044415039601 0.1239945282298355 0.0669439559050777 0.029136318086384595 0.010966571074689907 0.004099098608729955 0.0018424984636907444 0.001091043649621054 0.0008003499482199528 0.000676281318653269 0.0006371317910204892 9.03563698338261e-11 5.387864244275697e-05 0.00016282414823964785 0.0004451244857391676 0.0012859257199655894 0.0039424638578317225 0.01202128025789088 0.03328690963111501 0.07771476447330782 0.14664214512732363 0.21941044266679122 0.25767542049663417 0.23435902736639302 0.1611147660957695 0.08223840616323924 0.030177249157835692 0.007250678671332943 0.0008701950434857046 1.3364783858491056e-07 1.7772656959613407e-11 6.931930896207198e-11 4.623538597528887e-06 0.03583372134828667 0.040539827869799414 0.052296024097140105 0.07556733168495143 0.11442154119477735 0.16297477097680807 0.1975687664999538 0.1920544158767435 0.14629603165966062 0.08724410420920893 0.041249907305303896 0.015905055369828888 0.005320788976825618 0.0017674543569391368 0.0007170049324364479 0.0003972833337875455 0.00028096251127145307 0.00023291724258111076 0.00021803048591301753 1.1077713526332435e-09 0.0006676229659121855 0.0017290733684871052 0.0038261409456767743 0.008443538963004987 0.018901651623319006 0.04142566164268381 0.08377773294769529 0.14765797630145092 0.21756488886014214 0.26090677356963904 0.24967852079120464 0.18667048538971254 0.10587131481011323 0.044181326857089795 0.01316463212334497 0.0025426199107529924 0.00024204220919535208 3.358695745292685e-08 4.137911124033533e-12 5.075716164181842e-11 4.24168161577847e-06 0.08799655422296798 0.09560794465034912 0.11245600573662833 0.13964186798445904 0.17308185631827677 0.19824339874805424 0.19544364103613207 0.1583238130952575 0.10309946719329353 0.0537140906246052 0.022557012501520892 0.007809976376116549 0.0023579241919730776 0.0007085290914288523 0.00026368060160294256 0.00013817404723200482 9.4733925036853e-05 7.725773152824409e-05 7.192275265881389e-05 7.092516516538175e-09 0.004306617039805676 0.009854964667384369 0.01855386443132269 0.03352041693105696 0.059485753547305335 0.10152528805868373 0.15995539112336976 0.2226125971151267 0.2637052857766728 0.25840725234313355 0.2045123015791954 0.12751747225916035 0.060731096043822416 0.02120491271234399 0.005150576449121429 0.0008056592763599372 6.152469677465532e-05 7.816797120731526e-09 9.001552586707272e-13 3.380730726553951e-11 3.5434277849188984e-06 0.1460014956709626 0.15325251938909948 0.16710838679437942 0.18421798506025464 0.19582607953565354 0.18942796028186037 0.15826931552562562 0.11020356152534455 0.0627589167901781 0.029061625097361727 0.010994584420838314 0.0034637589129357218 0.0009575071219822222 0.0002647667936015865 9.193912520275389e-05 4.608162427162082e-05 3.0803084085570954e-05 2.477812927872914e-05 2.296102214917616e-05 2.773072774755654e-08 0.016931104714590455 0.03479196655995169 0.05730852254504872 0.08819132424251047 0.1302225253280943 0.1821084846394898 0.23398654054399562 0.2667114095855988 0.2611065784706632 0.2135366814750463 0.14227301560406339 0.07524376771069577 0.030623838673979963 0.009209495327512258 0.001928240693365646 0.0002522425394709423 1.559386453274217e-05 1.8375488751634128e-09 1.9961912801798976e-13 2.026743694477791e-11 2.6259144486758607e-06 0.1771880934549233 0.18042747796497371 0.1844799517045134 0.18446561161834976 0.1733647272312849 0.14643946903026644 0.10689257532857525 0.06559283381701192 0.03331805734384873 0.013932010313421079 0.004812266468849044 0.0013967901706627062 0.00035828802403195726 9.262141546108853e-05 3.0502685356993885e-05 1.4784901721438267e-05 9.687520263507916e-06 7.705828121016368e-06 7.113838631624139e-06 7.348626739003717e-08 0.04505460489472029 0.0838240384351408 0.12277990079767867 0.1649019854277579 0.20892152387547439 0.24761016125393606 0.2680733494747185 0.2575555658888682 0.2134459965298251 0.14866337610852043 0.08490024957657141 0.0387410971864671 0.013702468934265067 0.0036101667502046074 0.0006676413831997356 7.775558600049938e-05 4.332054205088167e-06 4.735170656523034e-10 4.8851442392374764e-14 1.088687251194654e-11 1.7062197779458333e-06 0.16634842476879713 0.1648299482414133 0.1593650260557927 0.14677250409368356 0.12458724924328358 0.0941247444279809 0.06141951503115353 0.03388686692035413 0.01561373441873973 0.005979508699456819 0.0019090411906766652 0.0005164213694369641 0.00012441827246026697 3.050220834825577e-05 9.668555508474023e-06 4.577386983903383e-06 2.954238265636214e-06 2.3290935198881502e-06 2.1436978898691094e-06 1.4235549526872396e-07 0.08756107562915146 0.147893693558105 0.1944337157123504 0.23145264676508115 0.25680138621859633 0.2640611738495773 0.24673586281555582 0.2043742647488727 0.14632882850856185 0.08840203865278273 0.04401084322552546 0.017608420240975878 0.005496830242017232 0.0012877268559388123 0.0002134146102938234 2.244831048336859e-05 1.138855235381955e-06 1.157399234609951e-10 1.1384194794228657e-14 5.241716491214308e-12 9.71190333422695e-07 0.12590471891947072 0.12168867986442769 0.11198724847663365 0.09610599588011949 0.0748665280218796 0.051512660289546326 0.03059318639414938 0.015427220738867738 0.006541191763551842 0.002323262523373158 0.0006933050906662028 0.00017664944996693003 4.0418394748864664e-05 9.51694207456175e-06 2.941062362764332e-06 1.37152016783824e-06 8.755682669492728e-07 6.855697662907189e-07 6.295332785241817e-07 2.1387914193476808e-07 0.1318912925150135 0.20187153445258538 0.23921393915118097 0.25482244301469276 0.25108397753680245 0.22781483228591404 0.18708320254023325 0.13603120455681783 0.0856032264343306 0.04558876354951 0.020090867307457305 0.00715175827598056 0.0019981622776831533 0.0004217300386781345 6.340686883053555e-05 6.0920344731758e-06 2.842124650361052e-07 2.6913500869669283e-11 2.534059006333097e-15 2.2698172933771633e-12 4.867450437320083e-07 0.0792719881318159 0.07488089579099375 0.06594547797316662 0.053225935621518776 0.038531829779951 0.024494473172659285 0.013434207416404439 0.006277431173932369 0.002480148335797187 0.0008262080194447135 0.00023283947152293583 5.642683214115415e-05 1.2385018908592757e-05 2.832175391349007e-06 8.624852587533187e-07 3.9889208767501437e-07 2.52774353063119e-07 1.9692200747745314e-07 1.8051308738147383e-07 2.6190377308676954e-07 0.1618391439158969 0.22306297146542597 0.23820356923743594 0.2282449044474292 0.20161234627229493 0.16342401040884866 0.119618283280114 0.07747661371647946 0.04347927129820646 0.020702480178108607 0.00818708545517701 0.0026272151286177146 0.0006652274927963526 0.00012798467397310344 1.7645434591070126e-05 1.5638829572988943e-06 6.768519424268339e-08 5.9865642599372e-12 5.418555922766487e-16 8.883696545217871e-13 2.1643516932345438e-07 0.042538653587469374 0.039337427642853945 0.03330498972709615 0.02547776733872019 0.017318440289787865 0.010292879522459325 0.005277699088485667 0.0023125305179645494 0.0008608823559344302 0.00027175773902133883 7.301826786355249e-05 1.6984492035586996e-05 3.608979757535961e-06 8.09271339810225e-07 2.449450337290161e-07 1.1294636306597875e-07 7.124946998954713e-08 5.531161189660534e-08 5.064205380912335e-08 2.732304654228789e-07 0.16912205191872262 0.2076187443654452 0.1988830710215982 0.1716130326316646 0.13667445262454275 0.0998669491927033 0.06587280033226049 0.038465321491506964 0.019490105832310162 0.00840017099745533 0.003017314557079709 0.0008831220949437715 0.00020492352673925484 3.6314724035070104e-05 4.635772609687375e-06 3.82326663891891e-07 1.5472362536156997e-08 1.2813775026335665e-12 1.1196436347923427e-16 3.159250681633878e-13 8.607585353437181e-08 0.019826553579236662 0.017975769380006633 0.014690850778333776 0.010723569813528313 0.006905730145115527 0.003876718544399465 0.001878477742554867 0.0007800845052567082 0.000276421532347826 8.348175241901558e-05 2.1578838302599286e-05 4.85906454663054e-06 1.0079728271582136e-06 2.2346487496814944e-07 6.766604262774942e-08 3.122866816126081e-08 1.9656390695274143e-08 1.5226757674279678e-08 1.3930851531027581e-08 2.531121897715451e-07 0.15688622211066983 0.16890654084159937 0.14378330538578607 0.11138569763608755 0.08015809104928089 0.05311745610447373 0.03184285994254803 0.016930327922952893 0.007827805917161713 0.0030870232555517342 0.001018024723921908 0.0002746230276403751 5.8985332604578955e-05 9.718603656710721e-06 1.1586296828513641e-06 8.962038722256974e-08 3.4152611788802373e-09 2.65559059502048e-13 2.2495814901531745e-17 1.0259107755166291e-13 3.084500475249506e-08 0.008145234261908153 0.007250395951508633 0.005741229152311146 0.004023278792782492 0.002474261083447256 0.0013241304037827386 0.0006122769105940304 0.00024335383096203342 8.286827792871449e-05 2.4163084395883506e-05 6.0606435555849285e-06 1.331986413859423e-06 2.7183838699064193e-07 5.999284011919795e-08 1.8260420470825015e-08 8.457819538024069e-09 5.321847761552519e-09 4.1185160711768386e-09 3.766730744485023e-09 2.1651562319911972e-07 0.13435611604725908 0.12451478601305999 0.09285024819195026 0.06406994221864941 0.04159422446657427 0.025072896316454735 0.013745288681431125 0.006707937239836179 0.002855768891167415 0.0010403382547459039 0.0003180057491115584 7.98122235395391e-05 1.6010900127111388e-05 2.473553726154924e-06 2.775571922149617e-07 2.0278280435798343e-08 7.323092382147557e-10 5.362153586639834e-14 4.4206677518480375e-18 3.0546205542209825e-14 1.0021666085695094e-08 0.0029829923140826404 0.0026103547104466105 0.002009898644333831 0.0013599493921227705 0.0008046713909481539 0.00041406298944572645 0.00018439696343596073 7.0805096232438e-05 2.338527104037311e-05 6.6422200149578855e-06 1.6303846809307465e-06 3.52505915502119e-07 7.128431879924535e-08 1.574893639151112e-08 4.833934369376183e-09 2.25106609362506e-09 1.4181044947675537e-09 1.0975321539993549e-09 1.0037875706722166e-09 1.771838378731628e-07 0.11005262167216327 0.08620262453315375 0.05528456620716172 0.03353176801520061 0.019513440810061906 0.010695735947545106 0.005382069954689722 0.002425923639149493 0.0009582741837303772 0.00032517171601900393 9.292678657552273e-05 2.1883553303743443e-05 4.133862987320336e-06 6.034798853362993e-07 6.41897062246221e-08 4.458087940720478e-09 1.534361673674523e-10 1.0611916378304745e-14 8.542371692723427e-19 8.363798636842189e-15 2.966080724016445e-09 0.0009819676016817101 0.0008458621329510803 0.00063553472063942 0.00041752103553213736 0.0002394038964174478 0.00011944353046897268 5.169070458079126e-05 1.9352488059751258e-05 6.2562413533122145e-06 1.7464578643592764e-06 4.2306837946866517e-07 9.069300019521532e-08 1.829460037291245e-08 4.0646352949074666e-09 1.2604553985023812e-09 5.907952285027499e-10 3.730959792415909e-10 2.890423737503507e-10 2.6443702129924507e-10 1.4274183306445044e-07 0.08872722080080823 0.058001231904928584 0.03138297188725783 0.016425287681981034 0.008464493660945585 0.004198072580660152 0.0019403095519626276 0.000811177281985394 0.0002991691957014823 9.525120514324938e-05 2.564527564086976e-05 5.710784333895552e-06 1.0235173486823442e-06 1.4219283598562574e-07 1.4431054217078788e-08 9.583936989675495e-10 3.159960229740276e-11 2.071071170927416e-15 1.6315184172623557e-19 2.1091368474459906e-15 8.020401755062142e-10 0.0002921923713398842 0.00024808851754016544 0.0001825470671344103 0.00011709534472914772 6.553615191549161e-05 3.196792899542166e-05 1.3565597347369475e-05 4.998189589855842e-06 1.5963434827371603e-06 4.41955265516652e-07 1.065751349138536e-07 2.283032664341785e-08 4.623385004911307e-09 1.0367965639125463e-09 3.2510306006474857e-10 1.5346067968465146e-10 9.725260506914427e-11 7.548232343527155e-11 6.909815339355659e-11 1.1542527030074984e-07 0.07178997359840755 0.03908129662760079 0.017586107637243574 0.0077761082128608135 0.0034827514141749206 0.0015457531764051778 0.0006538429406576599 0.0002539299419925144 8.783750447250696e-05 2.6401928052699258e-05 6.743464974340727e-06 1.4301179854870408e-06 2.448922729866717e-07 3.2592480806638e-08 3.1754826410464327e-09 2.0276227502619116e-10 6.434690651407818e-12 4.0099834497132975e-16 3.093778615024558e-20 4.897359755150295e-16 1.9833344965927838e-10 7.882161462228068e-05 6.605971859634492e-05 4.778249012221609e-05 3.0101891477246094e-05 1.6567743229825993e-05 7.969541495560316e-06 3.3471634750164473e-06 1.2254292728056033e-06 3.9043136915319525e-07 1.0822026375039471e-07 2.6212344108463995e-08 5.656487183504108e-09 1.1572146100021497e-09 2.6272278832071496e-10 8.330564764397304e-11 3.9607831704554086e-11 2.5212115779374487e-11 1.9620082782319905e-11 1.7976077317407408e-11 9.466728057785787e-08 0.05890517531683946 0.02697199581373635 0.010062908365676875 0.00369246350316553 0.0014031090408160125 0.0005466862130809068 0.00020950552761073214 7.539030792030721e-05 2.451330522860968e-05 6.989331068250798e-06 1.7037919813353398e-06 3.463764539441852e-07 5.704440484827215e-08 7.319053323442467e-09 6.885609132010899e-10 4.2491223831347504e-11 1.3035987060984356e-12 7.751402453662902e-17 5.8527266890372264e-21 1.0446249648843854e-16 4.479128070008253e-11 1.9279618388205994e-05 1.5973759341887225e-05 1.140482253450275e-05 7.100606987199484e-06 3.873910408032122e-06 1.8545388414474765e-06 7.785612083799203e-07 2.861424602116673e-07 9.188354916040742e-08 2.5755082806696895e-08 6.3256090137373864e-09 1.386788463600137e-09 2.884500914774873e-10 6.647720475741921e-11 2.1304761193476297e-11 1.0200852180968694e-11 6.527429156377447e-12 5.097099118590933e-12 4.675244067833164e-12 7.909707725889668e-08 0.04923166202218691 0.019344520103992763 0.006054092169859596 0.0018325797832274041 0.0005770480551535653 0.00019191050069352784 6.530266860497181e-05 2.156618908878569e-05 6.578952299484228e-06 1.7839858572260841e-06 4.170933893092484e-07 8.176568700429477e-08 1.3031515497156507e-08 1.6216920468462883e-09 1.4814991630836136e-10 8.879818942613886e-12 2.6446089466575313e-13 1.5060648069726475e-17 1.1106271611155888e-21 2.0366400425268002e-17 9.199351992398737e-12 4.2629945329182106e-06 3.497887937467424e-06 2.476450173097189e-06 1.5344190066750952e-06 8.371324836789106e-07 4.028534316405053e-07 1.708787585221317e-07 6.375033311918443e-08 2.086173982447168e-08 5.97770780719704e-09 1.5039738977619215e-09 3.380311875795801e-10 7.197225352931683e-11 1.6883951686529962e-11 5.4645786675179015e-12 2.6337592646307396e-12 1.6954176674072701e-12 1.3294684142982166e-12 1.2211192894272217e-12 6.746022846852132e-08 0.04199599546202545 0.014543078344030468 0.003915030806984621 0.000990542433818557 0.00025564681723546837 7.029797331264373e-05 2.053384204225569e-05 6.086217878097682e-06 1.7246858944444346e-06 4.4400170530271385e-07 9.982929533641725e-08 1.896338027556671e-08 2.941652879789719e-09 3.571541335326453e-10 3.1861001652302466e-11 1.864100782460381e-12 5.411457549176097e-14 2.9633222064960677e-18 2.1286592367145936e-22 3.5981661239738696e-18 1.7046751476317003e-12 8.461804783505935e-07 6.890189311060729e-07 4.863279894953149e-07 3.023027612379925e-07 1.6658309068231065e-07 8.150030452986257e-08 3.535150984863107e-08 1.3553155010365675e-08 4.5752481354069575e-09 1.3560564559213787e-09 3.534134858856726e-10 8.224687623788835e-11 1.80616515919215e-11 4.326995822304275e-12 1.4131732168443836e-12 6.851222881279238e-13 4.4395809799000006e-13 3.4987069710617497e-13 3.218842591138464e-13 5.8846887857700696e-08 0.036636143442084476 0.011529953049062612 0.002763040729047674 0.0006037735279909071 0.00012973931663792982 2.898115585446463e-05 6.956878790323407e-06 1.772492433971532e-06 4.540316896822322e-07 1.0963243726901638e-07 2.3643005579619878e-08 4.3621568158803374e-09 6.616842045000334e-10 7.881476132939366e-11 6.90401724177138e-12 3.962947922682298e-13 1.1260770991579452e-14 5.955427751520856e-19 4.15861819638267e-23 5.682442384729113e-19 2.8130096693335257e-13 1.4893797374514924e-07 1.206585795002626e-07 8.545902254736997e-08 5.380973057950579e-08 3.03069534833181e-08 1.5274847765735334e-08 6.869683917702205e-09 2.744368700853018e-09 9.68795834039434e-10 3.0091718201246734e-10 8.22379109053397e-11 2.00358471614336e-11 4.577739065880339e-12 1.1248091259160398e-12 3.7053694419936133e-13 1.8053016073914478e-13 1.1782701405462965e-13 9.339542021431017e-14 8.60902975791808e-14 5.2647422867599414e-08 0.03277507360782492 0.009689866176750326 0.002149596140816338 0.0004248097183430813 7.959567747509883e-05 1.4790103043615113e-05 2.8510963186689876e-06 5.881083434664888e-07 1.2823404319345926e-07 2.7935414010964677e-08 5.67253537877148e-09 1.010677386490502e-09 1.5004500122647917e-10 1.7603245331877707e-11 1.5219008180591799e-12 8.614509085022274e-14 2.406544308243867e-15 1.2356403969616377e-19 8.386277369802832e-24 7.852216584293031e-20 4.0483363027516417e-14 2.27800240400764e-08 1.8421344331341234e-08 1.3203228850414269e-08 8.525258907883786e-09 4.980706362150939e-09 2.6279169804462213e-09 1.2457218030544464e-09 5.270032247690711e-10 1.9757836618569502e-10 6.526106415786217e-11 1.8958759458098717e-11 4.8955171555959165e-12 1.1756019780480504e-12 2.9805795547098476e-13 9.908922007210662e-14 4.846565121603426e-14 3.187467094077825e-14 2.5434314766793643e-14 2.3497276397001397e-14 4.8455639058229976e-08 0.03016114573989676 0.008666535848662314 0.0018530594648572026 0.0003482929356818227 6.0640425664250906e-05 1.006086917225296e-05 1.6344173218465557e-06 2.6897889890617204e-07 4.624635985286514e-08 8.303207007990027e-09 1.485662991779891e-09 2.464389842906862e-10 3.5242494632209345e-11 4.054518498527789e-12 3.4640342310225646e-13 1.940553548529512e-14 5.351144272567852e-16 2.687998075227908e-20 1.7799911112113876e-24 9.173899702346114e-21 4.91183276896996e-15 2.928432290012426e-09 2.3748566855881856e-09 1.7429672731604136e-09 1.173641245159504e-09 7.253909734817172e-10 4.090369251307917e-10 2.085852472575755e-10 9.527138620305301e-11 3.862107157173234e-11 1.3791985047661852e-11 4.324330466520571e-12 1.1999669119113073e-12 3.06511616686682e-13 8.085786828427369e-14 2.7188982228744106e-14 1.3337756772525478e-14 8.842118393179763e-15 7.109249527642022e-15 6.5848073330062774e-15 4.599251240057781e-08 0.028621144954328846 0.00825876577737685 0.0017681280648591269 0.0003311954182239785 5.696399965548674e-05 9.17382415556385e-06 1.3980534679562569e-06 2.0370917593497272e-07 2.8809127795473047e-08 4.030542513503236e-09 5.63366083097301e-10 7.705545577716095e-11 9.726236621886442e-12 1.0421421753636875e-12 8.569521961224205e-14 4.695979441086537e-15 1.27295880586085e-16 6.4279480149449204e-21 4.268353407989483e-25 8.544679347994612e-22 4.739245965640077e-16 2.9860403170619117e-10 2.44659001760026e-10 1.8732221864108532e-10 1.3496750813961272e-10 9.082722103263586e-11 5.632995940827116e-11 3.1739444668573416e-11 1.6033681847092944e-11 7.180195889201809e-12 2.8254460496676604e-12 9.725970352190725e-13 2.945620075825274e-13 8.115704584984754e-14 2.2526575792934603e-14 7.699426865328205e-15 3.78683093621373e-15 2.5311277046138887e-15 2.0526514587608345e-15 1.9069126427058177e-15 4.505642607399542e-08 0.028029479617856345 0.008360622151234317 0.001851582913127881 0.00035903360975412114 6.393231670417806e-05 1.0639532211271443e-05 1.6642083581708774e-06 2.446905211521306e-07 3.371716472787122e-08 4.334948648600868e-09 5.171669900043609e-10 5.674491814229827e-11 5.6196762074723655e-12 4.825012646211671e-13 3.326269565930329e-14 1.601612121914689e-15 3.9529424404656126e-17 2.5395302457433e-21 2.116609004991045e-25 5.656114198014574e-23 3.242775098113099e-17 2.1546072110619768e-11 1.809925715725743e-11 1.4982732179569947e-11 1.2101695432578337e-11 9.303869834362103e-12 6.6318583123543324e-12 4.287844633109442e-12 2.4725740929880273e-12 1.2557754856740482e-12 5.567486048531362e-13 2.1450006588719225e-13 7.213775250886018e-14 2.1782855163184133e-14 6.453353529677815e-15 2.261578346765228e-15 1.116448035642476e-15 7.5258147647868725e-16 6.162832139582135e-16 5.745226652375007e-16 4.549144907311252e-08 0.028288632248290736 0.008926513618235066 0.0020966682541842807 0.0004325456144489061 8.224944028245571e-05 1.46759494064956e-05 2.470937182349289e-06 3.921589943926077e-07 5.832723067598207e-08 8.048403343017296e-09 1.0150874047180342e-09 1.145664475421226e-10 1.1227061068228572e-11 9.133848413389867e-13 5.746382398608687e-14 2.462661203628931e-15 5.335276982542942e-17 6.1793180238536e-21 7.003856838149193e-25 1.9668207280197437e-24 1.1633673218419631e-18 8.137211220249355e-13 7.327638923288989e-13 7.258004377251714e-13 7.362361143682826e-13 7.140143403409437e-13 6.321813927091599e-13 4.972506778957628e-13 3.4195596315792684e-13 2.0366032073215966e-13 1.0444944402915583e-13 4.60318429915632e-14 1.7521034119390145e-14 5.9027063690124604e-15 1.899046708508266e-15 6.914741074730838e-16 3.4394732191654924e-16 2.339737734936982e-16 1.9372853331194447e-16 1.813469527570777e-16 4.7165157783408835e-08 0.029315486716187843 0.00994853137699287 0.0025204930832752746 0.0005629622392835217 0.00011642489947610634 2.2712490875559278e-05 4.20654272068148e-06 7.394291039138098e-07 1.227120168196982e-07 1.9039808686959108e-08 2.7207829420013127e-09 3.504262879675493e-10 3.943042364670381e-11 3.7018953718099735e-12 2.6984243448285956e-13 1.3442251748411345e-14 3.391931412421473e-16 4.4451132009876594e-20 5.268564976432627e-24 7.160619699838948e-26 3.9776493471977414e-20 2.5485492755089705e-14 1.6423235302430701e-15 8.532680321764448e-15 2.051775816986308e-14 3.4188953401694325e-14 4.4554699009186465e-14 4.716845771210943e-14 4.125422634819671e-14 3.009612970386886e-14 1.8428186204587367e-14 9.521502475744398e-15 4.187953354577128e-15 1.6048824247384247e-15 5.719405671894826e-16 2.2031996921247218e-16 1.1133273272769595e-16 7.656664102098911e-17 6.421111561591054e-17 6.040544166868182e-17 4.995064211770686e-08 0.031030292851556864 0.011438516431378243 0.0031563885969355756 0.0007705718893318497 0.00017493907279343002 3.766289426705948e-05 7.746455787511984e-06 1.5231912290876676e-06 2.851346056850148e-07 5.037510816710643e-08 8.282832466872131e-09 1.2415256605843099e-09 1.64568221160046e-10 1.8433073317140738e-11 1.623684900673229e-12 9.894741494160168e-14 3.0879012922517866e-15 4.118695591572666e-19 4.917080813361673e-23 2.3000026478340538e-23 1.2412827147310611e-17 7.502194643983326e-12 4.572180223105625e-12 1.6816254892450362e-12 3.073924032760995e-13 4.5465183025267584e-14 9.664439402412258e-15 4.810349433801354e-15 4.45669798535011e-15 4.022381458233222e-15 3.0256210756427404e-15 1.879764722292744e-15 9.763894949807739e-16 4.343509351498574e-16 1.7519828620821108e-16 7.301724565365927e-17 3.801158355957949e-17 2.654184061082612e-17 2.260082177536093e-17 2.1390873358743582e-17 5.3709429464746433e-08 0.03334621425653382 0.013410413465367968 0.0040462213954705764 0.0010834801672875362 0.0002708958665628856 6.455848574829363e-05 1.4789273893106112e-05 3.2629742148087e-06 6.913477509399859e-07 1.3963691710751896e-07 2.6550773133641792e-08 4.661653831151566e-09 7.3404750502858e-10 9.91502779657093e-11 1.069630947102659e-11 8.104889172735773e-13 3.189018426096033e-14 4.2879047260566376e-18 5.12385539689378e-22 4.448034652429191e-22 2.3081160530544843e-16 1.313045090915e-10 8.755462283473276e-11 4.178333091502863e-11 1.4335243988767663e-11 3.308969438527126e-12 6.496450722800213e-13 1.3918511710403235e-13 3.058445568501114e-14 7.0519199946984315e-15 1.8756529441399474e-15 6.5022681881383e-16 2.8092038849244516e-16 1.276895041624969e-16 5.621025827232631e-17 2.5367520330269815e-17 1.374983153305061e-17 9.805591408972998e-18 8.508360628743431e-18 8.115637552529837e-18 5.827487004414154e-08 0.03615922153745977 0.01586086785681207 0.005229298229299645 0.001534411978312377 0.0004220317708706616 0.00011118931633153056 2.8334117006334804e-05 7.006568242195871e-06 1.679008417850723e-06 3.876918676863581e-07 8.533642158044522e-08 1.7596360119190337e-08 3.307433561107873