# vtk DataFile Version 3.0
vtk output
ASCII
DATASET RECTILINEAR_GRID
DIMENSIONS 41 41 1
X_COORDINATES 41 double
0 1 2 3 4 5 6 7 8 9 10 11 12 13 14 15 16 17 18 19 20 21 22 23 24 25 26 27 28 29 30 31 32 33 34 35 36 37 38 39 40 
Y_COORDINATES 41 double
0 1 2 3 4 5 6 7 8 9 10 11 12 13 14 15 16 17 18 19 20 21 22 23 24 25 26 27 28 29 30 31 32 33 34 35 36 37 38 39 40 
Z_COORDINATES 1 double
0
POINT_DATA 1681
FIELD FieldData 1
Concentracao 1 1681 double
0.0 7.310332260208743e-49 1.6299253757721103e-43 1.5788779560646086e-37 7.149547273024202e-32 1.2942252887497056e-26 2.1150688775678245e-22 1.8727519775117626e-19 2.868320743519726e-17 1.4175506515215307e-15 3.166741074871422e-14 3.9190909480544e-13 4.0423237374165685e-12 3.920235948812519e-11 3.186242850086551e-10 2.0113049092722788e-09 6.966013805746045e-09 2.432001940537964e-08 1.8699342260636497e-10 3.956967361966498e-12 3.8441743155944256e-12 8.350312936784789e-11 2.3784595093221465e-15 1.650181960021514e-15 1.1515984824870093e-15 8.865988768890411e-16 7.19845247074393e-16 8.569075387375817e-15 7.91019324894082e-13 2.2696368425813018e-11 2.769407081089445e-10 1.770873584027742e-09 6.7422314396092825e-09 1.6642473349997236e-08 2.8395716161828004e-08 3.552372905808882e-08 3.500975487690044e-08 3.0083629416570715e-08 2.5415593430828562e-08 2.2828872092479733e-08 2.1923566749157194e-08 3.399355406727414e-48 9.13792263559319e-43 2.037408315258257e-37 1.973599023958717e-31 8.936941240827525e-26 1.6177828397838243e-20 2.6438382120286583e-16 2.3409417770704504e-13 3.58540373562305e-11 1.7719396847392697e-09 3.958429499783125e-08 4.898867427946828e-07 5.052908714094448e-06 4.9002987953188804e-05 0.00039828067488510384 0.0025141331478952577 0.008707524223196362 0.030400048009730313 0.0002337419652513788 4.9462131374593696e-06 4.8052217261305324e-06 0.00010437899521293922 2.9730767651121924e-09 2.0627291002088524e-09 1.4394992371273735e-09 1.1082494620394029e-09 8.998072786882383e-10 1.071135279378161e-08 9.887749471369274e-07 2.8370483228634696e-05 0.000346176156773128 0.0022135937509082616 0.008427795871451135 0.020803108080530423 0.035494672983251666 0.04440469653082277 0.04376222860588043 0.03760456685434281 0.031769517204129134 0.02853611294447176 0.02740448036001324 6.560760887904123e-42 2.9140827150971508e-36 4.5964385159373703e-35 3.245753665800852e-30 1.1571672500584158e-24 1.6541914660524508e-19 1.6207940326424787e-15 1.1170889223180095e-12 1.5027307818868214e-10 6.935388262253603e-09 1.507613632703595e-07 1.881834040820717e-06 2.3828423574654602e-05 0.00026201145364394715 0.0019926068912509594 0.009651777824084615 0.03031209796154009 0.05264990233409031 0.00012814104080711983 1.1076462648138764e-07 9.985000907688404e-10 4.831774100201175e-06 3.1952876401941627e-09 2.41019517814123e-09 1.9676129684094928e-09 1.628032320072536e-09 1.4692160068585184e-09 4.4619194570773806e-08 3.3223883272475118e-06 8.02642633077061e-05 0.0008591163196654981 0.004930757642051902 0.017068627347185176 0.038551248535196314 0.06023107899584273 0.06867028837039378 0.06112929828213581 0.04721486155368433 0.0364292493964826 0.031029271878833104 0.029274379186344294 6.5561529433633e-36 3.3589858489432e-30 3.6219402928521295e-29 3.8196782890631986e-27 1.4884475381740118e-22 4.536287547689619e-18 1.488420539646778e-14 6.450297820969443e-12 6.910290724895839e-10 2.839526054719194e-08 5.884830924782601e-07 7.395295950184573e-06 9.545782374751004e-05 0.0009665681918888695 0.0060449489152066774 0.02322977422768077 0.0543720279922551 0.0627394758413084 0.00010256075728562262 7.458816964561607e-08 3.1901188739441706e-10 4.78769162728135e-06 3.5576393980117005e-09 2.690056684569879e-09 2.248994331783286e-09 1.9367827814397442e-09 2.736172055788788e-09 2.103191116052215e-07 1.0581878334726453e-05 0.0001982391811956588 0.00176993748765601 0.00881311891374583 0.027083685380540973 0.05502947187840766 0.07781686621125576 0.08026977183950679 0.06426195418580274 0.0444375194827431 0.031182984839346003 0.025152660501338894 0.023323499684009895 3.06423766857993e-30 1.6854984704050724e-24 1.4968945191849602e-23 5.857355748648215e-22 3.914478664794483e-19 4.698583302780574e-16 2.872698092364479e-13 5.8138588549171236e-11 4.264580147260248e-09 1.4269440082048234e-07 2.641777164358236e-06 3.137788626272834e-05 0.0003386503933535074 0.0028297133511510555 0.014124044290276881 0.04250549650125346 0.075239134078372 0.06406419849461494 7.64386459697681e-05 4.92306409097722e-08 2.933829393747502e-10 4.786942245224045e-06 4.081880625474584e-09 2.989158415353112e-09 2.5825096747310545e-09 2.9256364651672966e-09 2.7976529648296887e-08 1.37433753172809e-06 3.801011026765742e-05 0.0005028888106262439 0.0035477699230929516 0.014803352410830322 0.03944391716946205 0.07093298745361809 0.08980826947818768 0.08327775042471125 0.05977257587913026 0.036930988346695004 0.02351969930607054 0.017965200441462603 0.016387933063064002 5.769589717819582e-25 3.30111554130025e-19 2.413311137423845e-18 3.316575904839529e-17 1.2781529766939636e-15 1.0897045360449769e-13 1.1361919132228675e-11 8.506387268086687e-10 3.612191177970604e-08 8.756065364064671e-07 1.3183989718520266e-05 0.00013494119195311494 0.0010822683048262783 0.007078918895039334 0.02776502449649914 0.0655786494328066 0.09049499655328563 0.05912209092042664 5.5256696551714034e-05 3.1228417528645244e-08 2.700252765503751e-10 4.78652199895159e-06 2.0839217880478813e-08 2.4306662786128068e-08 4.1800766531290044e-08 1.2609533578780868e-07 8.704382980610204e-07 1.1862857786301712e-05 0.00015611720039040354 0.0013427336074251874 0.007129201997890062 0.024171340236338972 0.054710220934403316 0.08588595240040466 0.09649730290569124 0.0800488983452714 0.05143263648589874 0.028398711975177442 0.016417777191174286 0.011893384210680398 0.010687381246102376 9.881355942118868e-21 5.799535357533612e-15 2.7737782765315672e-14 1.612398993908224e-13 1.5249076803951255e-12 2.53429498136581e-11 6.326594034549848e-10 1.7164489395454515e-08 3.8052635079032687e-07 6.05012560893809e-06 6.780549133987965e-05 0.0005496359271806381 0.0033200027471007153 0.01583595815890015 0.0481244227096838 0.08969955487235777 0.09786542813125321 0.05004672618865117 3.7713558276080695e-05 1.8765555850388274e-08 2.47594035816316e-10 4.786198016577811e-06 1.1035816094841039e-06 1.3580933397802868e-06 2.1752530478968455e-06 4.9422109074795025e-06 1.7843235355407514e-05 0.00010152256765852963 0.0006686183336089988 0.0036396723937032146 0.014154091075949357 0.038227802911987345 0.07249510546967518 0.09842569994483395 0.09757475087788561 0.07222670885093942 0.04155999836400985 0.020556337691044837 0.010817841809008782 0.007455446390460391 0.006610996774496324 9.77880947780924e-18 5.832542091399605e-12 2.20767067822438e-11 8.589986536487635e-11 4.3191945296941387e-10 3.0611808803052555e-09 3.002194217523377e-08 3.554167261181386e-07 4.177094754669418e-06 4.18085900180731e-05 0.0003303269160956661 0.0020072535160414653 0.009274833505933052 0.03193326187926045 0.07490091322366321 0.11053901068941174 0.09609339896758572 0.03889224250460565 2.412176303736269e-05 1.0583723524110752e-08 2.2527319239160625e-10 4.7858794969503315e-06 2.4180601020690656e-05 2.8681940145450458e-05 4.170617192493707e-05 7.796530764082201e-05 0.00019698400158022964 0.0006669431815387601 0.00259963613591072 0.00935316328880115 0.026780824011528488 0.05742115196593688 0.09083767071220405 0.10630738265540782 0.09282655150130388 0.06132467181900945 0.03167943999241094 0.014099613699840297 0.0067896231236190575 0.0044722468619608656 0.003921115522231108 1.6884927072680744e-15 1.018035654576091e-09 3.321370327040233e-09 1.022569833224761e-08 3.632280763698696e-08 1.5999657500507716e-07 8.833009154494136e-07 5.7695159166094e-06 3.980436089098527e-05 0.00025678175250755196 0.0014162064924743752 0.0063244846674357594 0.02202317588682097 0.057356721671297885 0.10440251463239346 0.12260420136689985 0.0854180816381519 0.027563313745918572 1.42983287104108e-05 5.553938140778381e-09 2.0240198353365623e-10 4.784642104347823e-06 0.00025234865670000303 0.0002904347959220767 0.0003925619051653544 0.0006397581991349115 0.0012829991318884203 0.0031138230956108113 0.00834004188045316 0.02136868843164717 0.04644169131087473 0.08000893689390286 0.10612734284171493 0.10735557013075635 0.08276050997079504 0.048940244230874036 0.02279698866081046 0.009187591701153547 0.004077973866406826 0.0025822870749569547 0.002243320310426496 9.253133127303019e-14 5.6216361240639524e-08 1.6454129667346677e-07 4.311454768970968e-07 1.2190557556740347e-06 3.95988437672936e-06 1.4992043218504321e-05 6.432602817996228e-05 0.00029221240721444123 0.0012872998537330565 0.005071663968380998 0.01678072051340111 0.04433401052537177 0.08895465139480196 0.12760295309457376 0.12104870616570851 0.0682549983209379 0.01771421987272857 7.825750971390002e-06 2.7123165855796183e-09 1.7856867016755394e-10 4.777339810298965e-06 0.0015319322645556861 0.0017195561145083827 0.0021914287050963667 0.00321452633526236 0.005454026217154114 0.01047680569635547 0.021339422736018868 0.04178321299168995 0.07172950985230546 0.101440555680929 0.11419532131503242 0.1006175607564239 0.06887346227790359 0.036649827375572715 0.015486561712451104 0.005694649844816842 0.0023503636959193155 0.0014402703454089707 0.0012423498339692394 2.2393800987255103e-12 1.3681351397687082e-06 3.6683564329988516e-06 8.492884283274725e-06 2.029086813297177e-05 5.292519741509248e-05 0.00015289726077065877 0.0004812245929454021 0.001577338284842485 0.005050361652993345 0.014762709595027856 0.03707086543490197 0.07577633665674155 0.11960108079848694 0.13737779870635405 0.1065411438983553 0.049625308936125864 0.010497566602368707 4.064559633286278e-06 1.2788312536819902e-09 1.5364927717364935e-10 4.746093970874213e-06 0.006122857179984708 0.006726102773025183 0.008158090997195826 0.010988126948683953 0.016374598299721082 0.02637687067709877 0.043639316457779256 0.06902472620444478 0.09725216697900811 0.11569338262380635 0.11228550712418756 0.08710641871693808 0.05337435254025593 0.025737040976047516 0.009935674901894603 0.003361647552106185 0.0013027123634700665 0.0007778481067209658 0.0006675055473432076 2.920513121714597e-11 1.7918169916056394e-05 4.4544098768533885e-05 9.304565041688051e-05 0.00019425622500006835 0.00042697634734114616 0.0010014734003544227 0.0024781020359328533 0.006259598938076853 0.015369732558340933 0.034693076287722883 0.06813216405174317 0.11049006153491377 0.14044710506607447 0.13209141750879277 0.08541957976972307 0.03377842780220432 0.006182910533744719 2.1581886116190123e-06 6.274772472405891e-10 1.2789317501315312e-10 4.65061386884807e-06 0.017495907356200185 0.018856385048713602 0.02191207338076296 0.027471730738741134 0.0368442135397643 0.05163794683005209 0.07252074625145608 0.09658040772328096 0.11539058153385551 0.11822631751070888 0.10059269891717273 0.06954886870335363 0.03851049069257558 0.016962842587295215 0.006029168112289133 0.0018935105975398602 0.0006958172239625158 0.0004075358830322691 0.00034851896648366694 2.3362841873218394e-10 0.00014380524594179183 0.0003338302019560672 0.0006376642594077367 0.0011879980084273437 0.0022674947656026977 0.004489911321317127 0.009142358729204082 0.01865209986018927 0.03666134252956922 0.06625971702131346 0.10487833095121693 0.13849073689682623 0.1451496692474626 0.11420056864893365 0.06276434838766944 0.021432775654525053 0.0034406368062286892 1.0904033000582012e-06 2.940662704851317e-10 1.0204599606959549e-10 4.431322262615019e-06 0.03788125926693819 0.040130744026090744 0.04490415696997865 0.052929647941414526 0.06499724952497027 0.08129350993021375 0.09995550099842035 0.11560977525342585 0.12030327456426627 0.10842545552456499 0.08219452875228189 0.051284431581988685 0.025919747821502286 0.010518146999652178 0.0034698092336092256 0.0010203670330790925 0.0003589756269170777 0.00020746908757554358 0.00017706223124751524 1.2549315041140967e-09 0.0007744214084970076 0.0016865439133804901 0.0029721258490274156 0.00501154386008112 0.008476067306205246 0.014550301186992092 0.02516674121150015 0.04292101269061557 0.06985389744012502 0.10426797714117989 0.1367321081089266 0.15066909208051793 0.13311090024065697 0.08935721822074205 0.042465280607961675 0.012708801422096907 0.0018111771210167194 5.243427505279073e-07 1.3164473312986033e-10 7.736340217777328e-11 4.035888914225701e-06 0.0648590277821039 0.06764072896858288 0.07317232920442378 0.08172468459283033 0.09308524126168284 0.10584907146560932 0.11657081750235522 0.11991181684345029 0.11107383093511021 0.08969631519499285 0.061497331329520025 0.035050591696314276 0.016332621778288325 0.006158989490676795 0.00190093628766407 0.0005278276881446145 0.0001793335885864982 0.00010278714102301425 8.763736924084741e-05 4.838698367478211e-09 0.002992026022095528 0.006129655300159714 0.010027098243353395 0.015457787622578661 0.023507563106908835 0.03566406370829224 0.05363727750843422 0.07848742113688277 0.10864900549271216 0.13746090092949872 0.15299252588337023 0.14382458920379404 0.10927068778480784 0.06371326382992253 0.026590586885928743 0.00706737789978548 0.0009040503335635247 2.404408338022476e-07 5.640478803945474e-11 5.52822054099297e-11 3.4567401989398807e-06 0.09069928125819736 0.09323348289091025 0.09783792618492568 0.10420412409065537 0.1112273683304887 0.11666433641158745 0.11712717125539496 0.10919421046105715 0.09167462619864021 0.06740293012801235 0.0423718112043216 0.02231688795055212 0.00968223863478185 0.003422111181574008 0.0009959672660319991 0.0002631642735407361 8.699320565580574e-05 4.963791131325283e-05 4.231333072464197e-05 1.4096847288034804e-08 0.008730953926352775 0.016848318848058496 0.025694019348071438 0.036488843846126384 0.05045096372141246 0.0686466322033576 0.09140152866540006 0.1171290578441926 0.14093495262618136 0.15445205286632552 0.14897171703531897 0.12182158917770526 0.08102160313967682 0.04169092876351047 0.015494675476499624 0.0037011494720070952 0.0004292347626523748 1.0540969010714638e-07 2.318704080815877e-11 3.699038382551478e-11 2.7493464235779035e-06 0.10620218367868861 0.10772235945884673 0.10998413813684721 0.11232210772395829 0.11332463576893857 0.11094287231336333 0.10300603854259292 0.08839305105852885 0.0682988005227484 0.04637045264762758 0.027064474178531646 0.013317431006458026 0.005431029455481802 0.0018143149000245287 0.0005016906835655218 0.00012703428721280588 4.109842658967489e-05 2.3406437549365574e-05 1.9957926930064133e-05 3.2325870017395184e-08 0.020047194956705188 0.03644382551466009 0.05196381743928648 0.0683749445286389 0.08670655853855981 0.10705456970141754 0.12802445231062573 0.14607460656414697 0.15553200003817116 0.15036813887952194 0.12795723100959022 0.0925818134145952 0.05475573124467597 0.025219077197697146 0.008451042283354204 0.001833761586830988 0.0001945639681085102 4.432626918215406e-08 9.175019033211447e-12 2.3060552431866188e-11 2.013624704264596e-06 0.10615826284460823 0.10635593574682073 0.10594039576691185 0.10425583609656949 0.10017549265776787 0.09246602803072003 0.08036825593451738 0.06433258808518774 0.0463644414076292 0.029439537239813848 0.016139541176425208 0.007497264673732507 0.002900722766681479 0.0009234559422661028 0.0002443788586877275 5.966538861963491e-05 1.8969826766321502e-05 1.0797774791036359e-05 9.211487568404625e-06 6.034051003436642e-08 0.03745974385804218 0.06408410965817847 0.08557991208280274 0.10479896208911753 0.1227496225936891 0.13884924003148397 0.15092083025627764 0.15544611015612353 0.14867470143626135 0.12879453687543177 0.09820355287118009 0.06380947193086259 0.03402786924642655 0.01420575623654718 0.004340420649289476 0.0008638479215539805 8.454636522559703e-05 1.794792918926238e-08 3.507205503958742e-12 1.334488559647495e-11 1.3513201974474847e-06 0.0919529886329532 0.09107896087396311 0.08874196446410601 0.08454474187392579 0.07790080485856536 0.0684149081960487 0.05627271010176172 0.04251946602376503 0.02893082205444792 0.017382760597392077 0.009050103713651642 0.0040088799935236435 0.0014849550348427158 0.0004541705186751188 0.00011583112928472816 2.741044947023294e-05 8.583414119666268e-06 4.8837552818895e-06 4.168302351806893e-06 9.433037431732852e-08 0.05860954217321885 0.09413447879424304 0.11780536908886141 0.13469693904917648 0.14656369965900062 0.1531116363612454 0.1527917794461755 0.14373551169921875 0.12508878565189457 0.0984114645211716 0.0681494763347434 0.04029052901926747 0.01961300889362978 0.007505912434311994 0.0021121280749226558 0.0003889601884404275 3.537948732071858e-05 7.025916426064423e-09 1.3002570856959565e-12 7.1475120650296165e-12 8.286126539121063e-07 0.06980825838843575 0.06842375759602211 0.06538267025791887 0.060576642809542676 0.05387755457555287 0.04540450503876795 0.035698739283393 0.025743140702139077 0.016725235157085898 0.00961581048572217 0.004805050033579928 0.002049824207587401 0.0007335356202825984 0.0002172884477554738 5.377135986715143e-05 1.2386263642649153e-05 3.821164744313552e-06 2.1709898878780774e-06 1.8534631668122852e-06 1.2660652348605493e-07 0.07871496497693489 0.11824426313380798 0.13858087165167632 0.148264882561903 0.15056685171203366 0.14626100265614408 0.13516751431980195 0.11732255784194438 0.09395256198009515 0.06792589301998558 0.043233916305027854 0.02352970472382394 0.010571842233800843 0.0037467578821271264 0.0009799333386982128 0.00016832294782835475 1.4327212349041048e-05 2.6715997003926127e-09 4.696472122790592e-13 3.533582100120181e-12 4.633962181761221e-07 0.04683289249741892 0.045468955671581004 0.042725678459057295 0.03867312862939797 0.03341863528516973 0.027249467861858636 0.020678717286796967 0.014382765090765455 0.009020802443873873 0.005016897619386522 0.002431554001336809 0.0010089004750492795 0.000352004755740834 0.00010182406781081594 2.4614937021621978e-05 5.538481501137831e-06 1.6803305515942171e-06 9.511668921332775e-07 8.119561431114347e-07 1.491869688314215e-07 0.09280073173816228 0.1296699840381114 0.14202279743636798 0.14231635946293358 0.1353717074780663 0.1229864247729374 0.10605764010387343 0.08570372189241364 0.06378716721528663 0.042829782644414914 0.025326548048708156 0.012823431526420206 0.005371643383867786 0.0017795640272983207 0.00043625507784385563 7.04155298168526e-05 5.644358859563856e-06 9.91655062482201e-10 1.6603763758719275e-13 1.6074642338952185e-12 2.358906692768815e-07 0.027912421732536576 0.02687037811915831 0.024901000736793983 0.022126132862246996 0.018701197836634025 0.014878102489576486 0.011003340610116619 0.007459702832308573 0.004566217371224462 0.002483472662308889 0.001179923137372013 0.0004810036326621264 0.00016517577127731376 4.705892572553413e-05 1.1189729793517267e-05 2.466358598458952e-06 7.331571330555421e-07 4.120311460020223e-07 3.514739868137024e-07 1.5758888078956826e-07 0.09806391925978622 0.12652989933259867 0.12901616624692325 0.12103499418445475 0.10810274967999713 0.092297383164015 0.07476714676408434 0.05670405679998704 0.03958077177808225 0.024921112133210823 0.013826638962158126 0.006576782331521068 0.0025926708567580313 0.0008099270011828534 0.00018758440869139366 2.8651338696849207e-05 2.1757598817437416e-06 3.6130091265691587e-10 5.776403983486053e-14 6.70058650326253e-13 1.0897864269048203e-07 0.014813546189639228 0.01415596836163618 0.012978955478397537 0.011380504043016984 0.009475409773448793 0.007419636491357753 0.0054013859170905275 0.0036079522970640034 0.0021795929396594468 0.0011723229174495518 0.0005520043974750859 0.00022342864457717152 7.626763360166657e-05 2.1595059936001372e-05 5.087724538451221e-06 1.101409231642849e-06 3.1901306580281317e-07 1.7710861438371474e-07 1.5084332601909822e-07 1.5224813337241718e-07 0.0947651118133607 0.11189350875132126 0.10558960488846023 0.09253039568937037 0.07768605161034564 0.06256985789928976 0.04789079803318971 0.03433830931441508 0.02266736518881789 0.013503523320320744 0.007094695074863028 0.0031995807888500877 0.0011976170313809911 0.00035573625237630155 7.843489420453803e-05 1.1413010761563743e-05 8.258004468832219e-07 1.3000560676110936e-10 1.9893042444716065e-14 2.5438640339887154e-13 4.546986291348313e-08 0.006993932704685416 0.006643315463143105 0.006048120896047005 0.005263955823884878 0.004351243190603081 0.0033852932202186915 0.002451720542703963 0.0016320168307775071 0.0009844638210378673 0.0005298265143245816 0.0002501006049654305 0.00010163194409116754 3.485118537151014e-05 9.90330242017271e-06 2.3303765524599523e-06 4.969789831946529e-07 1.392573268775141e-07 7.584965264881684e-08 6.442514013190704e-08 1.3721372074691854e-07 0.08542025790702178 0.09136508469654067 0.07913424384439781 0.06447880339338355 0.05084957566724617 0.038731624496330545 0.028148690747088582 0.019208340967387084 0.012085086872400888 0.006869976716051063 0.003448467258864344 0.001487699499782168 0.0005333301369126212 0.00015187327813492637 3.211909388977795e-05 4.482323943604451e-06 3.107768783565859e-07 4.651640285514704e-11 6.826579623867918e-15 8.717172863093509e-14 1.6998896053284436e-08 0.002923076164335878 0.002764275174714422 0.002509735942761918 0.0021829157522029745 0.0018074046841312528 0.0014118757056391573 0.0010291396550101283 0.0006911315617640874 0.00042154464983123585 0.00022985743745371237 0.00011011304010428752 4.545880870106047e-05 1.5838785551434468e-05 4.565124195748895e-06 1.0827690897365803e-06 2.2841057147587378e-07 6.141666257196677e-08 3.251439878523903e-08 2.7496388109027197e-08 1.1764645640789803e-07 0.07324292174881192 0.0702811696452024 0.055284184419417154 0.04155953593099651 0.03068052587535712 0.022114502356889183 0.015318031560775817 0.01000693173255926 0.006044825487728965 0.0033060864646918204 0.001599340883057027 0.000665884151584957 0.00023062877067410497 6.348762061799532e-05 1.2978460359650367e-05 1.7490374528249769e-06 1.1688283415596518e-07 1.6678204015944725e-11 2.351913124703585e-15 2.6600998214890433e-14 5.623346699678479e-09 0.0010704718828107931 0.0010098987707520702 0.0009192744877460956 0.0008056247917103342 0.0006751947636587667 0.0005360425080044097 0.00039847067276537704 0.00027367825510623097 0.00017111572450775889 9.582107940031956e-05 4.720157815514656e-05 2.005083012909413e-05 7.186098120142151e-06 2.1256270365690717e-06 5.135539440410978e-07 1.0781970609797282e-07 2.7598613127624625e-08 1.4024503703725587e-08 1.1780094155289825e-08 9.78127586088143e-08 0.06089257960149645 0.05208695887904798 0.036778143275157854 0.02521381004668406 0.017293994094750367 0.011768200741334639 0.0077836169829024904 0.004891691458738436 0.0028563747249431945 0.0015150999812262886 0.0007125162484786188 0.00028888513507797735 9.753981027210156e-05 2.618406316118717e-05 5.21647663199534e-06 6.839126827755395e-07 4.433013473738039e-08 6.046608482314433e-12 8.207265526738668e-16 7.0803182848856556e-15 1.6136664452540522e-09 0.0003373521494787856 0.0003183617185386721 0.00029257688726638673 0.00026107698399640514 0.0002243949248677709 0.0001837344646552908 0.000141459081300509 0.00010093070533795097 6.569222312342724e-05 3.834466921856035e-05 1.9703022054138142e-05 8.731543873216582e-06 3.2620600230811483e-06 1.003127272272542e-06 2.4991171911615864e-07 5.2696292086310855e-08 1.2763970961146319e-08 6.1238637683609516e-09 5.09083223461102e-09 8.027906377153927e-08 0.04997033990802144 0.03814266539289739 0.02394605899015399 0.014747309070196897 0.009272577600435069 0.005911485131470979 0.003727501217485545 0.002260208967916045 0.0012833000845021056 0.0006652582247104243 0.00030681562240315933 0.0001222755795745238 4.063330653293736e-05 1.0737707521871137e-05 2.1036664477362286e-06 2.7055413767791056e-07 1.7132792274936878e-08 2.2397510413816753e-12 2.9305990094141595e-16 1.5900785658144571e-15 3.8885718820756267e-10 8.869863608591138e-05 8.406099691554268e-05 7.877520863067658e-05 7.262047070050444e-05 6.513950915247474e-05 5.605735797982748e-05 4.556451042859975e-05 3.440695425690776e-05 2.372767911913773e-05 1.4679148141842893e-05 7.992575263017061e-06 3.7507645291688633e-06 1.481914809527604e-06 4.805017777748126e-07 1.2518130936748323e-07 2.6850334646642382e-08 6.146321759529784e-09 2.7264090787223607e-09 2.2307070362354155e-09 6.607816624964802e-08 0.04112155576509227 0.028358299235494596 0.015814046435161048 0.008621239453222488 0.004868553682279766 0.0028598894154361998 0.001704415332713298 0.000995826007782372 0.0005518381130000473 0.00028150491856733604 0.0001284365246614569 5.080704490306059e-05 1.678946738486627e-05 4.413642637183038e-06 8.59139168659155e-07 1.0944997920750246e-07 6.83016922823086e-09 8.580951502458692e-13 1.0837491804621921e-16 2.8455255914069095e-16 7.436856705403472e-11 1.841088574132446e-05 1.7635917637680746e-05 1.7124526652282583e-05 1.668138484741467e-05 1.6024466125634714e-05 1.4881692186739196e-05 1.3096524878683837e-05 1.0712447253840585e-05 7.99400284514761e-06 5.3424620531926386e-06 3.136614208726907e-06 1.5842789529669486e-06 6.723299798267713e-07 2.3340333481934832e-07 6.459177188045577e-08 1.4327772429265903e-08 3.1199337107141743e-09 1.2484316848512975e-09 9.96483755197232e-10 5.52743039095403e-08 0.034387278062348745 0.021976509314683597 0.011057592652644742 0.005318664299795892 0.0026377926596402312 0.0013865845892666125 0.0007634731277205321 0.00042486858095520957 0.0002292994645791758 0.00011557335588368607 5.257084784167701e-05 2.0848114943426174e-05 6.928029968483459e-06 1.8333544306546461e-06 3.5887362642995727e-07 4.5823346178104014e-08 2.8490740386351886e-09 3.449725732352127e-13 4.210363274789731e-17 3.625266937750086e-17 1.0090733627361266e-11 2.6997837949392573e-06 2.648539639644434e-06 2.750289954241989e-06 2.9521207656642398e-06 3.17428075922002e-06 3.3154004408289826e-06 3.2753564227427637e-06 2.9928571645063896e-06 2.480580060492651e-06 1.8313380878154902e-06 1.1823292062318108e-06 6.542629872367987e-07 3.03239344339517e-07 1.1456647298514899e-07 3.4257966246096745e-08 8.01599312822856e-09 1.6885072153566847e-09 5.944103465189779e-10 4.5636950487800416e-10 4.749902684904673e-08 0.02953833989980042 0.01813282469749783 0.008533952556285682 0.0037102507559844044 0.0016112752906726972 0.0007338448142900037 0.00035728203934132046 0.00018280987324433264 9.424754355557117e-05 4.666281091397164e-05 2.1224805721421567e-05 8.507967792880698e-06 2.8754753305074235e-06 7.761050088916699e-07 1.549462477712122e-07 2.0120101344019348e-08 1.264276806671635e-09 1.4798804397810143e-13 1.7476583026894153e-17 2.438665096621568e-18 7.204819731856059e-13 2.0764722505161038e-07 2.1745108117460894e-07 2.650724095899136e-07 3.487262394069834e-07 4.6138514866015435e-07 5.843950053178977e-07 6.865066333579956e-07 7.320392826860846e-07 6.970220983062115e-07 5.839459076916079e-07 4.2391163034050775e-07 2.6203395938204144e-07 1.3501716077040992e-07 5.6478284288847356e-08 1.8580254180729617e-08 4.6882253065979725e-09 9.816870612599204e-10 2.983817532638353e-10 2.1551819352087404e-10 4.228749472042517e-08 0.0262849958570334 0.016125729170878005 0.0074555921485485255 0.0030953749597235052 0.0012319702298783397 0.0004913416864247409 0.00020385785543668516 8.986652252243837e-05 4.164818426081004e-05 1.947431388096727e-05 8.69980566671299e-06 3.5145561851109223e-06 1.2157439794714889e-06 3.386820770123305e-07 7.002525491888879e-08 9.408938690224638e-09 6.08597828508586e-10 6.919081054135563e-14 7.936995815884925e-18 3.344240712684143e-20 8.91137161614449e-15 2.34740888508922e-09 6.046027607856415e-10 5.88509464842027e-09 1.8130607641296297e-08 4.038842076986423e-08 7.371937936098235e-08 1.1416433020998867e-07 1.5176219913383683e-07 1.7365561108842047e-07 1.7059606247724074e-07 1.4284869384749213e-07 1.0074586106935645e-07 5.8807552431199164e-08 2.7728588771847683e-08 1.0224780059881831e-08 2.846969913500206e-09 6.138552065500061e-10 1.6061331779533136e-10 1.0556089730983959e-10 3.922725783712086e-08 0.024369764111587245 0.015483907658544798 0.007368004328120896 0.0031091570243172535 0.0012283397138764254 0.00046738129569055424 0.00017521078123827676 6.622808479661208e-05 2.5749134195129537e-05 1.0333724133826946e-05 4.174032108325833e-06 1.611032429217965e-06 5.557374823964455e-07 1.5879021040152162e-07 3.422534782217032e-08 4.829653646630943e-09 3.2816078493618536e-10 3.713288667620635e-14 4.3242427472212375e-18 5.165971753815045e-18 1.3189680916066513e-12 3.1916521247256324e-07 2.5208628270108715e-07 1.4176486422973538e-07 4.846512006304226e-08 1.489424419837312e-08 9.596856647721367e-09 1.5153901268680948e-08 2.599543472673441e-08 3.756510254371302e-08 4.493534813151933e-08 4.464947885138167e-08 3.6754949426534056e-08 2.478881387813994e-08 1.342048854510365e-08 5.652938390652531e-09 1.7775189454013036e-09 4.1028710277266303e-10 9.440772908429764e-11 5.393923219155982e-11 3.79917215570549e-08 0.0235884778416783 0.015933584753223536 0.008061693783877411 0.003611544010181645 0.0015069384139466315 0.000598296977157939 0.00022848822786762044 8.451256318919391e-05 3.0446066655327992e-05 1.0732515042842717e-05 3.701769363806719e-06 1.2331589506827825e-06 3.828006964012695e-07 1.0378172765657912e-07 2.226824530023653e-08 3.2430007559755034e-09 2.3281614580032774e-10 3.261275149636285e-14 5.316886429161611e-18 4.998154491968097e-17 1.1880275063518481e-11 2.634561296994218e-06 2.2517439203861823e-06 1.5757428250565782e-06 8.883872581221944e-07 3.7934436781123974e-07 1.3829098210402046e-07 5.098208846145267e-08 2.0927528786218336e-08 1.281097767845258e-08 1.243180628411789e-08 1.3370190946956914e-08 1.2741403246556265e-08 1.0039992262744397e-08 6.341272287264238e-09 3.1069866215078713e-09 1.1281910090740651e-09 2.8965898949136024e-10 6.14940663533934e-11 2.892192203964185e-11 3.832154224437853e-08 0.02377886434610124 0.017333877153363635 0.00948187454544017 0.0046014384956716645 0.0020835300252553322 0.0008984470154330777 0.0003721982285739698 0.00014854248451155196 5.704338682299985e-05 2.098228866466096e-05 7.32897365336677e-06 2.395576968579731e-06 7.14670344737972e-07 1.8644156617489588e-07 3.950440196151043e-08 5.944958294771519e-09 4.665696416447943e-10 1.1723866110041212e-13 2.9010073177655