# vtk DataFile Version 3.0
vtk output
ASCII
DATASET RECTILINEAR_GRID
DIMENSIONS 41 41 1
X_COORDINATES 41 double
0 1 2 3 4 5 6 7 8 9 10 11 12 13 14 15 16 17 18 19 20 21 22 23 24 25 26 27 28 29 30 31 32 33 34 35 36 37 38 39 40 
Y_COORDINATES 41 double
0 1 2 3 4 5 6 7 8 9 10 11 12 13 14 15 16 17 18 19 20 21 22 23 24 25 26 27 28 29 30 31 32 33 34 35 36 37 38 39 40 
Z_COORDINATES 1 double
0
POINT_DATA 1681
FIELD FieldData 1
Concentracao 1 1681 double
0.0 6.74853332568681e-98 1.8740409661673896e-91 3.3056330068765667e-85 3.776875482066863e-79 3.1268435511036655e-73 1.991300605245723e-67 1.0218156951985171e-61 4.379687408705094e-56 1.617513756937142e-50 5.2983375060608915e-45 1.5848492990157375e-39 4.444056802697241e-34 9.026231445958983e-29 1.1109062901878608e-23 5.887056882560997e-19 5.355113619116668e-15 2.8989968588309763e-11 2.361092384328468e-10 5.306683368331039e-12 3.867662372101854e-12 8.251304043802837e-11 2.350258312857724e-15 1.6306159044288854e-15 1.1379440637488342e-15 8.760861640007763e-16 7.006324246768989e-16 5.7690078095098565e-16 4.836119578125401e-16 4.1005345872023933e-16 3.497979933476253e-16 2.9886410055574924e-16 2.546283674321925e-16 2.1529551277278461e-16 1.8042362842425877e-16 3.0770969105375767e-16 1.480006498181116e-14 6.851759625597143e-13 1.6513439633344993e-11 1.9018041580016804e-10 7.74439532414584e-10 4.114221296777744e-98 8.435673405641838e-92 2.342553042218481e-85 4.132044564228715e-79 4.72109812945906e-73 3.908557407768683e-67 2.489127747857759e-61 1.277270603945455e-55 5.4746135457512815e-50 2.0218937598118684e-44 6.622927163266845e-39 1.981063137360187e-33 5.555075447428354e-28 1.1282798193384332e-22 1.3886339736411162e-17 7.358826990258129e-13 6.693897379009454e-09 3.6237489049463746e-05 0.000295136784150297 6.633359487638441e-06 4.834581820176274e-06 0.0001031413830605759 2.9378252413304678e-09 2.0382715111520113e-09 1.4224312002586792e-09 1.0951085606614597e-09 8.757912314785483e-10 7.211265524490268e-10 6.04515430877633e-10 5.125672334537579e-10 4.372478347834562e-10 3.735804245587871e-10 3.182857074873322e-10 2.6911960303461746e-10 2.2552971204789312e-10 3.8463741879384914e-10 1.850009602732893e-08 8.564706383756055e-07 2.0641816055120872e-05 0.00023772570993062586 0.0009680501899577623 2.5755854697495874e-94 1.2582696270948308e-88 2.612889861854023e-84 3.715845284075077e-78 3.9355416681896834e-72 3.175918168408017e-66 2.0244838969128884e-60 1.0508686666289617e-54 4.562211163503813e-49 1.695710178972247e-43 5.512631564865879e-38 1.5995024127992442e-32 4.206674868408258e-27 7.907040686813474e-22 8.723393463634394e-17 3.5222724096500545e-12 3.243842323267413e-08 7.467172601761905e-05 0.00021761559150738167 2.2472807058574708e-06 1.534729698417776e-08 4.967846148129092e-06 3.1662949621730217e-09 2.384345491413376e-09 1.94576694107833e-09 1.6096165095682285e-09 1.3611107021820128e-09 1.165686936043301e-09 1.0074536416296148e-09 8.752092840340808e-10 7.617220514152259e-10 6.619806702957416e-10 5.724187881787969e-10 4.904191439227807e-10 4.164752811162092e-10 7.996005541728431e-10 4.067352437175401e-08 1.8309378671389987e-06 4.2967113161123616e-05 0.00048244543085380366 0.0019157455642283315 3.777692168501103e-88 2.0054504973286222e-82 9.594166377956573e-82 3.2695202803451235e-77 2.912543660860882e-71 2.120939876418983e-65 1.2666402917573949e-59 6.285357461272157e-54 2.630541523859021e-48 9.42053225338764e-43 2.9241562084618268e-37 7.950693313648427e-32 1.9012128769503687e-26 3.271893551990938e-21 3.169765396602975e-16 1.057520915854598e-11 7.390571753900572e-08 0.00011301693944735543 0.00023377985865277945 2.3991771982905856e-06 1.4121912261328857e-08 4.734668982109567e-06 3.5246325897885336e-09 2.6624593075590115e-09 2.224900349723588e-09 1.914247076191239e-09 1.6671027692676444e-09 1.4639924812136893e-09 1.2916425326123958e-09 1.1419068875813558e-09 1.0089562487004267e-09 8.885714521479744e-10 7.775624512618104e-10 6.73461751738087e-10 5.789304606744205e-10 1.295448710019601e-09 6.93590932969827e-08 3.006723931408974e-06 6.812196040438984e-05 0.0007402200737299262 0.0028485668290568235 3.387059993674832e-82 1.8944517411973642e-76 7.636314672077804e-76 3.5562452003279988e-75 2.2377079399956847e-70 1.401926394604528e-64 7.49835113804647e-59 3.4134209059434497e-53 1.326768569777232e-47 4.424899361837344e-42 1.2709916359157863e-36 3.146229885623289e-31 6.66306628974346e-26 1.0406534083485622e-20 8.88061880066964e-16 2.4297429969498186e-11 1.3169984095433624e-07 0.00015384253494832778 0.00024054928848655824 2.522863514848663e-06 1.50578501553112e-08 4.730372280369082e-06 4.011076605457257e-09 2.9137992540634253e-09 2.443239825515548e-09 2.1291103866819773e-09 1.8842907660542875e-09 1.679824679013315e-09 1.5026940208345159e-09 1.3451392132466626e-09 1.2020122769312754e-09 1.0695635706951793e-09 9.449056116574463e-10 8.25737469018172e-10 7.183518787423716e-10 1.9511977800608773e-09 1.0864678423929748e-07 4.491295599485741e-06 9.742231408670245e-05 0.0010171376483361105 0.0037713352406736527 2.0160731226896163e-76 1.1640855224768471e-70 4.293639791668819e-70 1.6042233389800557e-69 9.514440139655318e-69 9.634192293455444e-64 4.479802581453658e-58 1.8150173193966718e-52 6.362985808363144e-47 1.9221710879997272e-41 4.978348568273696e-36 1.0953968823305864e-30 2.010989755832396e-25 2.833071230914111e-20 2.133698552254721e-15 4.8302167611557214e-11 2.1198256224231725e-07 0.00019807067540166914 0.00024896585059136684 2.60833703768134e-06 1.5646546297103452e-08 4.7279265410555346e-06 4.631254238678336e-09 3.1731524027083985e-09 2.6335275682503577e-09 2.30197664631619e-09 2.052463953532052e-09 1.8461197315129235e-09 1.6664822361051368e-09 1.5049307179077767e-09 1.3561206738185965e-09 1.2163380392430798e-09 1.0827647881898568e-09 9.531487792357049e-10 8.40011182090256e-10 2.897139135675716e-09 1.6465434395173354e-07 6.42741964591658e-06 0.00013241870927376722 0.0013193769417702197 0.004687938572174016 8.184577341089065e-71 4.823847103991318e-65 1.6785502723734844e-64 5.74237455467867e-64 2.450200379083064e-63 2.2801885493388877e-62 2.8561237674107163e-57 1.0098027290361755e-51 3.1293335052805102e-46 8.395984271234555e-41 1.9244473530902653e-35 3.698805186960985e-30 5.787913314021101e-25 7.008484802066514e-20 4.676742144294902e-15 8.870276132690216e-11 3.2191005355277474e-07 0.0002471035973167675 0.00025551733687319544 2.6596617893976285e-06 1.5881415569542517e-08 4.7259461008341545e-06 5.379400677506166e-09 3.446764802249983e-09 2.8116553405911576e-09 2.45082178903652e-09 2.1910316780477016e-09 1.9804662968416287e-09 1.798226580065381e-09 1.633929153608868e-09 1.481525887909619e-09 1.3369986449536854e-09 1.1973837643118552e-09 1.0603741237107915e-09 9.497474771217863e-10 4.355252468712505e-09 2.4667664451570705e-07 9.008251002697543e-06 0.00017495101663344046 0.0016531603459102907 0.005601497811346212 2.283856143625895e-65 1.3648724372978315e-59 4.557786782742965e-59 1.464072130102597e-58 5.736225985860239e-58 3.279653107763895e-57 5.904116072994377e-56 6.250660010573374e-51 1.6784786018341777e-45 3.922061022686616e-40 7.806333425399001e-35 1.287532568458519e-29 1.688826412907938e-24 1.647114642375203e-19 9.729048964607871e-15 1.5534579702921895e-10 4.719696619406028e-07 0.00030209100964584894 0.00026093921592317275 2.683343859038753e-06 1.5880463932121188e-08 4.72442041176873e-06 6.249297677676518e-09 3.736845451447162e-09 2.9835337449876543e-09 2.58455201503377e-09 2.3099165534596746e-09 2.0928699356578537e-09 1.907214634380195e-09 1.7403741685598017e-09 1.5852837645772024e-09 1.4374167180445532e-09 1.2935172046952689e-09 1.151169463452339e-09 1.0554002454295438e-09 6.711184021979509e-09 3.6901971334104037e-07 1.2496961065268978e-05 0.00022721452111866493 0.0020247098385925153 0.006514343310112965 4.319030621830268e-60 2.6065154372632586e-54 8.442031371238964e-54 2.5865857656534314e-53 9.489367716367744e-53 4.968901963481197e-52 5.122563419863657e-51 3.704179761966571e-49 1.5195239221041598e-44 2.5674575214255704e-39 4.0172910980202945e-34 5.318719276007118e-29 5.579249920443572e-24 4.2360797956595614e-19 1.986132858400161e-14 2.648913414303591e-10 6.769242930192922e-07 0.00036449253359371783 0.00026534804780156587 2.6850327478830793e-06 1.5694009301965073e-08 4.7232017811071e-06 7.2331032888217525e-09 4.042172913893823e-09 3.1517592534849562e-09 2.7076772669609057e-09 2.414750112881806e-09 2.1893479112468926e-09 1.9993925044398097e-09 1.8298234871472321e-09 1.6723954333797912e-09 1.5219460595308396e-09 1.3748402385852484e-09 1.2286176356112672e-09 1.1696555380261565e-09 1.0641282399768924e-08 5.536846750940369e-07 1.7249031165245376e-05 0.0002918044712146088 0.002440092530911355 0.007427851485286907 5.322527536825853e-55 3.235193345438634e-49 1.0229202868992777e-48 3.0185829480052275e-48 1.0494256941944562e-47 5.096201326298157e-47 4.653101669798994e-46 1.879198076258018e-44 1.880246543513299e-41 2.81780881770395e-37 1.1231867972562595e-32 6.185966769150829e-28 3.480097683867456e-23 1.5830187671334775e-18 4.426096319205317e-14 4.49214585740467e-10 9.590901883024298e-07 0.0004358712598044036 0.00026893242641375917 2.6685892247659677e-06 1.5362616520189436e-08 4.7222283901563624e-06 8.322621153392078e-09 4.3607709722259286e-09 3.3173116255777543e-09 2.8227688159301493e-09 2.5089729858543012e-09 2.273789548927873e-09 2.0787673913792827e-09 1.9061875957907004e-09 1.746513962745615e-09 1.593887881570742e-09 1.4442486309626866e-09 1.29536806673882e-09 1.3159728932471457e-09 1.733564601285212e-08 8.342906519599888e-07 2.3742610478820267e-05 0.0003717590209051821 0.0029051053152462773 0.008342481305836766 3.952546506173735e-50 2.415458297719214e-44 7.481366430228835e-44 2.1372864691554123e-43 7.083210366146727e-43 3.202177885359382e-42 2.5744840984579386e-41 7.125882114314736e-40 1.93540357259824e-37 4.0239753803371295e-34 2.6062747392441536e-30 3.2030066912314956e-26 5.563826827565983e-22 1.0458650286449028e-17 1.4982011870920893e-13 8.892792020381932e-10 1.363557675493457e-06 0.0005181007110787584 0.0002718397510695757 2.63726660719879e-06 1.491990958082146e-08 4.721447131430241e-06 9.50964360500059e-09 4.690749111559783e-09 3.480695163349313e-09 2.931507737619261e-09 2.5949311492690133e-09 2.3489037463905047e-09 2.1482146152842457e-09 1.972341400851499e-09 1.8104066798213609e-09 1.6558219733655817e-09 1.5040776039404598e-09 1.3539653652955286e-09 1.5409522546266946e-09 2.888279097588696e-08 1.261786591770996e-06 3.260966453733971e-05 0.0004705553159791957 0.003424970684005941 0.009257667885857362 1.51363687999473e-45 9.288564632388837e-40 2.819145119330463e-39 7.796519606190909e-39 2.4600299543476274e-38 1.0283417728308284e-37 7.095236763660256e-37 1.2650125498261641e-35 1.115078345727342e-33 5.143965800758048e-31 7.567326195815682e-28 2.382883333759104e-24 1.2362204363839801e-20 8.436956518785311e-17 5.527473022030439e-13 1.905721770315957e-09 2.0918186358529643e-06 0.000629673683906436 0.00027413803742311804 2.5940268481355965e-06 1.4409805085622786e-08 4.720820958821639e-06 1.0786421254644987e-08 5.031051513483094e-09 3.6425086478299992e-09 3.035250067977225e-09 2.6744266113207604e-09 2.4167528756680518e-09 2.209925476829956e-09 2.030512710380032e-09 1.866257970023975e-09 1.7098208756262262e-09 1.5562522207868467e-09 1.4074626047473293e-09 1.9399999277433245e-09 4.8912796738810066e-08 1.9121321165055973e-06 4.4668386744764076e-05 0.0005920612272385114 0.004004023651221135 0.010171812968707524 2.119616665810768e-41 1.3049758072529625e-35 3.860856906834167e-35 1.0261294970433121e-34 3.0430543349349615e-34 1.1484502085624952e-33 6.523001002051125e-33 7.448712160612925e-32 2.6185485731722254e-30 3.540949331687596e-28 1.4974370488382029e-25 1.4552625224717258e-22 2.568091509694255e-19 6.768347252803584e-16 2.045677053011023e-12 4.114039860509849e-09 3.2141472865948523e-06 0.0007624104764828297 0.00027596417318129435 2.5408188101404873e-06 1.3835131647291302e-08 4.720320716766766e-06 1.2146012261398329e-08 5.381980658121218e-09 3.8037947388322615e-09 3.1353642791547726e-09 2.749029817674675e-09 2.479045766145591e-09 2.265689188280251e-09 2.082516879282247e-09 1.91585687427233e-09 1.7576097843838556e-09 1.6024342622661121e-09 1.4608902805573414e-09 2.7092041074565487e-09 8.363831113755529e-08 2.89608024570587e-06 6.0950500067677985e-05 0.0007404204291839546 0.004645363053361371 0.011082266760802999 8.025049073065278e-38 4.953520899974615e-32 1.426511905156048e-31 3.634698518340784e-31 1.0100390059489282e-30 3.435347936633915e-30 1.6269509514153398e-29 1.3048332895271007e-28 2.3594734274839223e-27 1.2296153157554723e-25 1.8348974586409657e-23 6.483261683932165e-21 4.4563334127793496e-18 5.015696399989079e-15 7.38410633609434e-12 8.823920848916834e-09 4.918281567475145e-06 0.0009200265662507804 0.0002773562128914798 2.479243525206959e-06 1.3214669364835864e-08 4.719925332654785e-06 1.358251128028328e-08 5.745656714427407e-09 3.966341563590387e-09 3.2334523676687824e-09 2.820299691896778e-09 2.5373427654877215e-09 2.3170669711662243e-09 2.129906650799529e-09 1.96073022601223e-09 1.8006661131019777e-09 1.6441777554477661e-09 1.5249403801981395e-09 4.24714301486865e-09 1.4344691572186356e-07 4.370676235801969e-06 8.271067126625828e-05 0.0009198301574690308 0.005350326742411479 0.011985284761171599 9.202969452256647e-35 5.692266762251676e-29 1.5954407878237223e-28 3.900358198157799e-28 1.0181279183659365e-27 3.1447055310842734e-27 1.272655607320291e-26 7.757149185000962e-26 8.681465479224549e-25 2.208568383455376e-23 1.4084237932013904e-21 2.0992690841634878e-19 6.34876711151867e-17 3.3626937590444616e-14 2.569625249455627e-11 1.8712203661776877e-08 7.483999986170073e-06 0.0011067751571933444 0.00027839114267931943 2.4112590760169444e-06 1.256437446850571e-08 4.7196177609485115e-06 1.5091387969790246e-08 6.12647281594704e-09 4.132921885897995e-09 3.3315109670987767e-09 2.88990473092857e-09 2.593165369372529e-09 2.3655135431541634e-09 2.1740902384763607e-09 2.0022427313042958e-09 1.840316469808711e-09 1.6833205443103092e-09 1.6251370897710944e-09 7.3442380243635396e-09 2.451703985940654e-07 6.550585381261134e-06 0.00011140555459407488 0.0011342234778220976 0.006118099698407034 0.012876084876104166 3.9845233078925954e-32 2.4685609210622648e-26 6.731506028046338e-26 1.579368813161773e-25 3.880419522929225e-25 1.0951379530006545e-24 3.8570645602877615e-24 1.881184435637228e-23 1.4660800285107117e-22 2.171737212011065e-21 7.008869947052952e-20 5.0391738692147225e-18 7.474608343082748e-16 2.0330258301626737e-13 8.57636108309717e-11 3.912247082215115e-08 1.1316260950987337e-05 0.0013273346409087043 0.0002790756585091393 2.3378302662109576e-06 1.1895859905903453e-08 4.719384956740141e-06 1.6669584261663915e-08 6.531584031891025e-09 4.3075927407124455e-09 3.4321201156707874e-09 2.959769793369944e-09 2.6481280045648754e-09 2.41247399599156e-09 2.2164152555846965e-09 2.041677373924781e-09 1.8778828702693642e-09 1.7231767044063126e-09 1.8236253865661075e-09 1.3512942561670298e-08 4.149925638652769e-07 9.715664544868464e-06 0.00014862633553502336 0.0013868065592578106 0.0069451805239117235 0.013748935504763686 7.89930015582e-30 4.900295386682783e-24 1.2990440370321652e-23 2.9242302164240944e-23 6.768412392698641e-23 1.7530033084990765e-22 5.444021594683231e-22 2.1982705540052875e-21 1.2861925171847483e-20 1.254630486018766e-19 2.3528382121106507e-18 9.189799302942586e-17 7.356315095938579e-15 1.1099653355537124e-12 2.7360911203206494e-10 8.046299462822811e-08 1.6989618598973162e-05 0.001586750302608075 0.00027944255769485983 2.2603891949926057e-06 1.1220890427944118e-08 4.719214461630851e-06 1.8315785304654376e-08 6.971569805061133e-09 4.496111450871785e-09 3.5386987063648365e-09 3.032248104251689e-09 2.70405870369541e-09 2.4595048855063766e-09 2.2582924147350865e-09 2.0804198060666833e-09 1.915178789357624e-09 1.7724294068385218e-09 2.2676789063695863e-09 2.5513490569843767e-08 6.915954888881061e-07 1.420885813237533e-05 0.0001959547657722158 0.0016794543754571217 0.007825036867649736 0.01459728063243311 8.337781765884006e-28 5.1776728085703865e-22 1.33352321840143e-21 2.8778505889786717e-21 6.2775674147082034e-21 1.4966954804420537e-20 4.139273337958022e-20 1.4174840571501857e-19 6.548066701073416e-19 4.578590154954386e-18 5.5482694757875686e-17 1.302339315032961e-15 6.120259796951269e-14 5.486345737674504e-12 8.323193062760033e-10 1.6242004322100878e-07 2.5302745338304438e-05 0.0018902654186539513 0.0002795236408223323 2.179887845369394e-06 1.0549075570370907e-08 4.719097453344552e-06 2.0030973761705168e-08 7.461336821064283e-09 4.70672773422095e-09 3.656059387758879e-09 3.110552980065474e-09 2.763402846240996e-09 2.5086925686087774e-09 2.3017347078502624e-09 2.1208262285805527e-09 1.9568029130701785e-09 1.8571570758705424e-09 3.2890973654999962e-09 4.8094275329194166e-08 1.128463205379053e-06 2.0416311645502338e-05 0.0002547435730942853 0.0020120596145030366 0.008747728758294403 0.015413982645222028 5.256844241948189e-26 3.267107243397223e-20 8.169566739728861e-20 1.6897790114662139e-19 3.4761491732798522e-19 7.651558334571422e-19 1.899265712241118e-18 5.614383447401196e-18 2.120519930700887e-17 1.127612100866098e-16 9.561929582273827e-16 1.4652167071292112e-14 4.348320601453362e-13 2.460634941433913e-11 2.4089155809912053e-09 3.210194487604654e-07 3.733847956779444e-05 0.002243107302515533 0.00027929544646820517 2.097173459160852e-06 9.886303962952457e-09 4.71902863656532e-06 2.1820374797925603e-08 8.022964349792392e-09 4.952999042820401e-09 3.79298059907027e-09 3.2012381271566834e-09 2.831788020317677e-09 2.5655309041112988e-09 2.35288075381648e-09 2.1713232734118386e-09 2.0202920642415596e-09 2.0555728560298785e-09 5.589482036896257e-09 8.885629161937329e-08 1.793452827560516e-06 2.8721149744784726e-05 0.0003257972333827733 0.0023817878586139137 0.009699846142046182 0.016191562409814453 2.1639340173119173e-24 1.3457218903732325e-18 3.2663534331982376e-18 6.474895710693882e-18 1.2570293279675714e-17 2.5616209362964986e-17 5.74462521294051e-17 1.4859557317426448e-16 4.707249062413785e-16 1.9851252759032497e-15 1.2492244763657177e-14 1.3352824648188306e-13 2.662339920831041e-12 1.0033080814259042e-10 6.619956409996192e-09 6.197008637057054e-07 5.452091963771406e-05 0.0026501037413126276 0.0002787895845939941 2.013307242028953e-06 9.240420166794934e-09 4.719002807383416e-06 2.371163282011385e-08 8.704994840903518e-09 5.273457575039965e-09 3.981639198773144e-09 3.3335890544285657e-09 2.937743814622974e-09 2.659550435131256e-09 2.4447453792168965e-09 2.2741760769990917e-09 2.178155332803239e-09 2.5928823250429887e-09 1.0551934766377982e-08 1.5894262842626949e-07 2.762909960153404e-06 3.942332353678767e-05 0.00040899252016169166 0.002782435976665746 0.010664580515013598 0.016922565776640745 6.2321006207769e-23 3.8774706818785164e-17 9.13754577959405e-17 1.7365717260494841e-16 3.184863775768924e-16 6.025378126153461e-16 1.2277370722046361e-15 2.809451774164743e-15 7.605371265339327e-15 2.6225887900381876e-14 1.2792200827342524e-13 1.004307302538381e-12 1.416830495144686e-11 3.72586854993531e-10 1.723779307566392e-08 1.1653014169496583e-06 7.865262742859766e-05 0.003115222978907612 0.00027798436456788803 1.9287563079408847e-06 8.614315988438447e-09 4.71901494187903e-06 2.591059316166132e-08 9.741292789737207e-09 5.889631703732014e-09 4.4315437507179685e-09 3.7079715838790684e-09 3.275098515886491e-09 2.9816683524351527e-09 2.772553377626191e-09 2.6463816812309835e-09 2.724611655666071e-09 4.095339491345509e-09 2.072367658963298e-08 2.730229370988407e-07 4.107936020794955e-06 5.2628761037088896e-05 0.0005028728712554363 0.0032039100464320964 0.01162201807021204 0.0175999537039223 1.326903921796749e-21 8.258433284420568e-16 1.889902168617644e-15 3.4457570066386285e-15 5.978436600276383e-15 1.0529794336809134e-14 1.959661102418132e-14 4.001792238866339e-14 9.394272026595282e-14 2.708889206537638e-13 1.0574423716270967e-12 6.3455884494851945e-12 6.607356221899873e-11 1.2623968610637218e-09 4.244783440673621e-08 2.1286949891445754e-06 0.00011190404373284524 0.0036408825442065078 0.00027687474767088655 1.844340254731087e-06 8.012490696331128e-09 4.7190631041233655e-06 3.0036621586680154e-08 1.2789694507942497e-08 8.409703049438385e-09 6.6671429760422185e-09 5.745984734186554e-09 5.153783369731147e-09 4.733812887426659e-09 4.450963811581744e-09 4.36636818363316e-09 4.8353271998926585e-09 8.304358846619709e-09 4.057885637622573e-08 4.4794614614652694e-07 5.871578920580262e-06 6.81222935429071e-05 0.0006043130267135096 0.0036320890443356647 0.01254970281042647 0.01821750971222105 2.1822378052023794e-20 1.3584707760124973e-14 3.0207145374987986e-14 5.288923025043909e-14 8.697434963803872e-14 1.4302797697249905e-13 2.4427969442529954e-13 4.4852356917360117e-13 9.233992981746742e-13 2.264736566936615e-12 7.2447131071288145e-12 3.423984729532317e-11 2.721597714596797e-10 3.9093969265600205e-09 9.867089503848783e-08 3.767009760883593e-06 0.00015672459744017468 0.004227211088866791 0.00027547390435359633 1.7608988582610778e-06 7.4379973062909486e-09 4.719147780838033e-06 4.817840040662629e-08 2.990715033924643e-08 2.4374062623985836e-08 2.137280936217379e-08 1.9052444806809206e-08 1.6988998054504694e-08 1.5142052700066085e-08 1.362048252372219e-08 1.2700018295282768e-08 1.3279381620312107e-08 2.033980816429892e-08 7.810770715492616e-08 7.000321553947945e-07 8.040767695300983e-06 8.52542396618246e-05 0.0007083457461614651 0.004049024490654582 0.01342340045577698 0.01877028372180048 2.8733553041964743e-19 1.7888720444327746e-13 3.8688737229317774e-13 6.514125431021966e-13 1.0174448313582493e-12 1.5671937495594607e-12 2.467732708682177e-12 4.100654435153943e-12 7.472710386170527e-12 1.5788441041948215e-11 4.21124367220166e-11 1.6027164732358464e-10 9.97999070252218e-10 1.1087132458051196e-08 2.1614534516811006e-07 6.439687592094257e-06 0.00021561905192853028 0.004871066700318012 0.00027377494662372706 1.6790532435106243e-06 6.8929640927264745e-09 4.719263065806442e-06 1.655588367301921e-07 1.4503578731094757e-07 1.3277751672920756e-07 1.1989001107018574e-07 1.056269639787317e-07 9.076693773014025e-08 7.640896139664971e-08 6.363448310941777e-08 5.357895712253378e-08 4.835227482702146e-08 5.711000282998848e-08 1.498659135666959e-07 1.0428862027309047e-06 1.0521316163962006e-05 0.00010288778929733483 0.000808287682191787 0.004433754847834598 0.014217928167919648 0.019254935958474308 3.1197989920296956e-18 1.942290897924725e-12 4.090179092559782e-12 6.635025679021578e-12 9.867904274577308e-12 1.4287028689288057e-11 2.083701515316415e-11 3.1527923736667844e-11 5.125834614245652e-11 9.423116081706616e-11 2.1224171247825077e-10 6.606922287878515e-10 3.2841583353036262e-09 2.8858431523469e-08 4.4553352394729863e-07 1.0604720217230293e-05 0.0002907669522893176 0.0055650876781657786 0.00027176732674056116 1.599413611343403e-06 6.377433895716127e-09 4.719401974804932e-06 9.592422940841404e-07 9.210352571862428e-07 8.55325161372749e-07 7.63377103578055e-07 6.55079667216059e-07 5.416876661767111e-07 4.331880108253211e-07 3.371562600059771e-07 2.587772860823753e-07 2.0276618106223667e-07 1.835293926585596e-07 3.018773711307242e-07 1.4941541112117562e-06 1.3131749430388871e-05 0.00011945389673811185 0.0008962227639556512 0.004763561580215082 0.014908030132642391 0.019670010666238164 2.86227907606183e-17 1.7817820008725148e-11 3.659431975218333e-11 5.731513844336008e-11 8.141498729705304e-11 1.1123748430657237e-10 1.5101587483235398e-10 2.093255663523776e-10 3.057881062864267e-10 4.931875024977687e-10 9.467306689290224e-10 2.4351513713481666e-09 9.78050821619603e-09 6.910775656419044e-08 8.62995418618615e-07 1.677609646003562e-05 0.0003834422984457762 0.006296671284527435 0.00026947995355902047 1.5228235708738392e-06 5.892320528854737e-09 4.719509980314367e-06 6.259640780760132e-06 6.062628185570784e-06 5.581699343793053e-06 4.89581571066597e-06 4.099474888234977e-06 3.283347893293187e-06 2.520865070905835e-06 1.861406827353522e-06 1.3303910290876124e-06 9.358063360282209e-07 6.88392020511647e-07 7.074933117261926e-07 2.1247561840622707e-06 1.5644199769093274e-05 0.0001331478942894799 0.0009638793664529334 0.005015799698024813 0.015469223484265339 0.020016093490418753 2.265275214845098e-16 1.409874451963053e-10 2.8290411922818054e-10 4.289529448642281e-10 5.840362057209068e-10 7.564483269321657e-10 9.612704547241824e-10 1.2285189656380812e-09 1.6241715663393748e-09 2.315622541456617e-09 3.81535344482103e-09 8.155361375510716e-09 2.6609824315904198e-08 1.5271075275963473e-07 1.5690427045647442e-06 2.5423204759160037e-05 0.0004932714483405954 0.007047141019412916 0.0002669168872314032 1.4498850844518192e-06 5.434603075229904e-09 4.719146603361968e-06 4.145517818770078e-05 3.99441338588007e-05 3.6374306021370876e-05 3.141278035811666e-05 2.5779656434540715e-05 2.0135847461964742e-05 1.4986009384319219e-05 1.0640345470734281e-05 7.2226200635631614e-06 4.71430383006552e-06 3.0268269843522264e-06 2.1720240683697034e-06 3.3125146843143068e-06 1.79451635432367e-05 0.00014228378623218035 0.001003785776944153 0.005169983512506717 0.01587856826352233 0.0202958097825085 1.573269200889686e-15 9.789074900454048e-10 1.923158704571461e-09 2.831921576151921e-09 3.711434712306685e-09 4.581017516212424e-09 5.483115092101901e-09 6.5077781908154215e-09 7.848703376659414e-09 9.970616708225642e-09 1.4192466242403312e-08 2.5277022826723462e-08 6.69190069447943e-08 3.1262452979421914e-07 2.6751483733609094e-06 3.680306160036202e-05 0.0006174023723022624 0.00779115879796754 0.0002641130782445588 1.3812932142571462e-06 4.99860465614085e-09 4.714562415577767e-06 0.0002759278948062398 0.00026417602853401936 0.00023827219458655307 0.00020318820042240473 0.0001641555739326202 0.00012580757996417483 9.152050887843382e-05 6.320017939580616e-05 4.141649546566529e-05 2.576275373822227e-05 1.528418164829391e-05 8.976010183978979e-06 7.110488924354686e-06 2.0695671791245324e-05 0.00014588261816542356 0.0010106000966764908 0.005210067862943729 0.01611529998407669 0.020513657023656734 9.730151482295918e-15 6.052072551956228e-09 1.166969006757931e-08 1.6747242609119288e-08 2.1226805705859884e-08 2.5118341126372607e-08 2.852436064991049e-08 3.1704857967910924e-08 3.520731737776784e-08 4.0233207119162173e-08 4.986097692753333e-08 7.412945040972935e-08 1.5803664576340164e-07 5.964060790006598e-07 4.274410865820036e-06 5.0743999700292544e-05 0.0007497649241073887 0.008496512844162364 0.00026112188018389355 1.31782529631004e-06 4.569077793691298e-09 4.6703582949359425e-06 0.0018083880111440854 0.0017224082333610101 0.0015425480733241889 0.0013036222730056666 0.0010418298061720677 0.0007883830038143064 0.0005651490239322615 0.00038358667431792924 0.00024616185831831557 0.00014901512885804656 8.489274777949247e-05 4.569582400349883e-05 2.5171503867748557e-05 2.8750485585598794e-05 0.0001452362437514231 0.000982536447663591 0.0051265630400891046 0.016161489105911756 0.020675700711839908 5.423418028462649e-14 3.371882245221422e-08 6.398739243812571e-08 8.985737760682354e-08 1.1073786284593674e-07 1.2646805127557107e-07 1.3737617436862572e-07 1.4439418213803015e-07 1.4929029401191091e-07 1.5534059030898074e-07 1.6952362367072448e-07 2.1137528782352604e-07 3.5873174781834153e-07 1.0710473773931254e-06 6.40150586630818e-06 6.643492889357443e-05 0.0008806645936218252 0.009124462799359087 0.0002579750574015912 1.2601354966158832e-06 4.095679310051097e-09 4.205516023527142e-06 0.009909574792611769 0.009439202649983736 0.008460651057167397 0.007159129765826665 0.005730223775310025 0.004343500910335044 0.0031186009353473525 0.002119221598880808 0.0013601639355610088 0.0008216641989634921 0.0004648380579095295 0.0002448726029074768 0.00012096356999228003 6.938665210705897e-05 0.00015088304666730195 0.0009241019512885061 0.004918523524002932 0.01600263874026853 0.020789158027960043 2.7505036579976476e-13 1.709221153442403e-07 3.201987674737179e-07 4.419329969741582e-07 5.32659009848392e-07 5.914498814694251e-07 6.201373884226058e-07 6.231740540491294e-07 6.078256936565135e-07 5.848118498097274e-07 5.714682939604941e-07 6.051249507606471e-07 8.105383476389087e-07 1.8457078318429584e-06 9.004452396162444e-06 8.231916523382847e-05 0.0009970005489120103 0.009630708537766017 0.0002547322606831488 1.2087100965278546e-06 3.4649864804975823e-09 4.374645797049185e-07 0.006190773323088818 0.004786692337488528 0.005115813007494606 0.005866585648099811 0.0063495735442173455 0.006265975598747621 0.005623563731850884 0.004610543195248086 0.0034672055692511108 0.002395595565642163 0.0015186373111493673 0.0008792252792411119 0.00046235312410904334 0.0002297913667728456 0.0002016922243144342 0.0008533733270834541 0.004596167120516604 0.015628537908134513 0.02086192466780018 1.2783146536369258e-12 7.939429148358901e-07 1.4730665623407188e-06 2.007665643576024e-06 2.3812049322993303e-06 2.5909480188349e-06 2.6477744952806718e-06 2.574494116369506e-06 2.4041779389587117e-06 2.178603248500633e-06 1.9500444120836527e-06 1.7973583226983909e-06 1.9144512283597143e-06 3.1723777325258567e-06 1.1984444598908993e-05 9.62157807686604e-05 0.0010834196876232495 0.009967073061693412 0.0002514356496184384 1.1642352953334195e-06 3.516803519315502e-09 4.004589382504189e-06 0.026176096903056265 0.026692817685986317 0.02780129001818308 0.02951720450349507 0.028341065973219042 0.02456308877787747 0.01981802360281237 0.015101491401409211 0.0109179509549091 0.007472754080047143 0.004807940110713594 0.0028760258922471923 0.0015766436989364937 0.0007855769081498612 0.00042530517963566556 0.0008255213045460817 0.004187898962529563 0.015035140455753883 0.020902096241809134 5.466962622603618e-12 3.3935068944896808e-06 6.257523036159702e-06 8.46236087966082e-06 9.939672530721083e-06 1.0683759064664036e-05 1.0748650764752855e-05 1.0239063453287861e-05 9.299339490721778e-06 8.099168736888916e-06 6.822795225343559e-06 5.677570097332111e-06 4.990846061560187e-06 5.853145924499589e-06 1.54542386036802e-05 0.00010580693137709746 0.001124487282781903 0.01008391434822835