# vtk DataFile Version 3.0
vtk output
ASCII
DATASET RECTILINEAR_GRID
DIMENSIONS 41 41 1
X_COORDINATES 41 double
0 1 2 3 4 5 6 7 8 9 10 11 12 13 14 15 16 17 18 19 20 21 22 23 24 25 26 27 28 29 30 31 32 33 34 35 36 37 38 39 40 
Y_COORDINATES 41 double
0 1 2 3 4 5 6 7 8 9 10 11 12 13 14 15 16 17 18 19 20 21 22 23 24 25 26 27 28 29 30 31 32 33 34 35 36 37 38 39 40 
Z_COORDINATES 1 double
0
POINT_DATA 1681
FIELD FieldData 1
Concentracao 1 1681 double
1.0 1.0000000299842289 0.9999997550890244 0.999999510121771 0.9999993624045322 0.9999992889003085 0.999999253341093 0.9999992348613279 0.9999992235617832 0.9999992152518691 0.9999992080006875 0.9999992005743207 0.9999992000030908 0.9999992000016981 0.9999992000013669 0.9999992000012567 0.9999992000012198 0.9999992000009834 0.99999920000128 0.9999992000012765 0.9999992000012781 0.9999992000139551 0.9999996897614519 0.9999994159310978 0.9999993370796384 0.9999992789788574 0.9999992527272302 0.9999992370514981 0.9999992276990174 0.999999221653278 0.9999992175882769 0.9999992147505848 0.999999212716802 0.9999992112307932 0.9999992101325559 0.9999992093189538 0.9999992087214652 0.9999992082948468 0.9999992080087675 0.9999992078442371 0.9999992077904244 0.9999997726268152 1.0374803161172022 0.693861040708102 0.38765172392100034 0.20300502768871748 0.11112471062653757 0.06667561945402808 0.043575922376981886 0.02945146920998299 0.019064077641174564 0.01000007020071428 0.0007171374607520091 3.0635231447414487e-06 1.3350926084934139e-06 9.085505929191418e-07 7.708612388462302e-07 7.246904356207093e-07 4.4787140376902207e-07 7.999728255580842e-07 7.999938630926665e-07 7.9999710046004e-07 1.664389634549039e-05 0.61220150466238 0.2699132880638318 0.17134889510911164 0.09872286751134536 0.06590829049572211 0.0463136103430642 0.0346229994042256 0.02706581917692713 0.021984578610714952 0.018437445727245653 0.015895235119683642 0.014037714481704157 0.012664921966070868 0.011647908642566976 0.010901040200354484 0.010367766709217947 0.01001016733528364 0.009804504185401026 0.009737238305377547 0.999999380862016 0.8316637529953114 0.41707859079716325 0.17165644820899784 0.06459130645230407 0.023974766818133434 0.009349557844604992 0.003957553085468379 0.0017604364359920203 0.0007315153627578935 0.0002085819820684218 4.453875863785162e-06 5.354948643698599e-07 1.2170723071319995e-07 2.8583252870387488e-08 6.963552445850902e-09 1.7392990840185243e-09 3.1657986354808e-10 6.54967411857808e-13 6.399901518428259e-13 1.3968713805524273e-12 9.344156351027978e-11 0.2516206686142429 0.0980662895963817 0.03859651079618349 0.015577506021894443 0.007295567478820876 0.003801545180223244 0.002187597586000432 0.001365966701662081 0.0009146612780817627 0.0006502770480419839 0.0004871538511999095 0.00038220113810511473 0.00031247708658699443 0.0002652031730651008 0.00023285222483771534 0.00021100453896439253 0.00019693955272025377 0.00018907005737506488 0.00018652715390946788 0.9999990149398652 0.5784345375445616 0.22238282256022812 0.07342494763796518 0.0220701827101524 0.00639209736706201 0.0018573572658435776 0.0005563643554839308 0.00016889896675265727 4.639517068292524e-05 8.227747020812988e-06 4.823798890846146e-07 9.428087658854231e-08 1.937868128244004e-08 3.95211509017383e-09 7.855025013375149e-10 1.3734076409390357e-10 1.6193631920325874e-11 7.432738239472181e-16 5.359342597180861e-19 1.3330830710446697e-18 3.8036137583771115e-16 0.07804374748268311 0.028032974415070498 0.009070429941046074 0.002752298074114742 0.0009889784359107389 0.0004010196163441634 0.00018441083540727602 9.436640598177428e-05 5.3084140416938936e-05 3.244293898951658e-05 2.1341992629689187e-05 1.4993375323779123e-05 1.1176670155446535e-05 8.793511332607041e-06 7.269357211850764e-06 6.2918002432100275e-06 5.68648483821297e-06 5.356138436867038e-06 5.250986440936584e-06 0.9999987607151896 0.3733618840575029 0.10811741683144098 0.029497646547275307 0.007432130887650984 0.001791984523432205 0.00042394801646125955 9.960885433611235e-05 2.2796850777066882e-05 4.638514859170362e-06 6.791352706023979e-07 7.931331170117048e-08 1.3987243092479578e-08 2.5497485279195846e-09 4.439236010933754e-10 7.057958611693528e-11 9.214178992051798e-12 7.290103416800857e-13 3.1509480745702276e-17 1.0827221803370688e-21 1.673998670713701e-24 1.0736041314570694e-21 0.019721215300624144 0.0067675282981169834 0.0019222839065748069 0.0004877416498905647 0.0001430865713374442 4.75528415983605e-05 1.8125548876009493e-05 7.815283702801839e-06 3.770920015315442e-06 2.0127943373054245e-06 1.176929023651744e-06 7.473840294524495e-07 5.116720921108963e-07 3.752907244433877e-07 2.933332146140752e-07 2.432530281470718e-07 2.133471237162066e-07 1.9739801947924295e-07 1.923728572111551e-07 0.9999986137329988 0.2397832630851796 0.050746381469764214 0.0114046350158484 0.0024568061568845845 0.0005094628438258735 0.00010289885879136904 2.029481268604061e-05 3.833036179476109e-06 6.530432510092321e-07 9.294900570721298e-08 1.291888792449304e-08 1.9539222918869825e-09 3.1225334027241485e-10 4.609379793405436e-11 5.947870129001854e-12 5.954590842102995e-13 3.4236395544303347e-14 1.44149734203231e-18 5.1338521376189206e-23 1.8188498657122676e-27 2.663796377558277e-27 0.004234411527584883 0.0014094043026862488 0.0003678688642628144 8.22366774558516e-05 2.079147319607221e-05 5.908889538960607e-06 1.93217282408695e-06 7.210361042139442e-07 3.047547343801968e-07 1.4443664784055092e-07 7.605163595856488e-08 4.4104589908208924e-08 2.795441080714705e-08 1.9234431317888604e-08 1.4282051010695576e-08 1.1388438080862566e-08 9.715812656903411e-09 8.84299755651313e-09 8.57082911092244e-09 0.9999985349084904 0.16004239887010496 0.02425717832109545 0.004399881716303277 0.0008103328932143623 0.00014647775211051615 2.5875332121476566e-05 4.4473629638356806e-06 7.312907529868191e-07 1.1120050296194813e-07 1.535587042444908e-08 2.0854785760723066e-09 2.7497092810964615e-10 3.690869069182287e-11 4.6248298530542494e-12 4.90235240722881e-13 3.888696541303005e-14 1.7056134062848084e-15 7.033283536274363e-20 2.5773214568304185e-24 9.3961381109846e-29 9.437495472994116e-33 0.0007975583643846096 0.00025994049232699347 6.389039490680067e-05 1.3039319772467584e-05 2.9476970037080048e-06 7.415029241233733e-07 2.1420134255538076e-07 7.089333682195958e-08 2.677671376189784e-08 1.1452432647966612e-08 5.501679118502416e-09 2.9445385023574012e-09 1.742483735658142e-09 1.1321996150137528e-09 8.027306667935368e-10 6.178113042867914e-10 5.140540192166057e-10 4.6095181783081096e-10 4.4456174852260166e-10 0.9999984923250163 0.1129323911730697 0.01233705544870296 0.0017643807237703814 0.00027407988353074714 4.315171812395543e-05 6.7256629637163386e-06 1.0247578716924618e-06 1.5025400948740965e-07 2.077164462888632e-08 2.694524905607394e-09 3.3726112500522947e-10 3.961827080427983e-11 4.307628641412657e-12 4.592564711291032e-13 4.0476082414438054e-14 2.6028954132433217e-15 9.041273693972393e-17 3.669079147093206e-21 1.3738712769226747e-25 5.12439577695363e-30 1.912195366140233e-34 0.00013487064382074163 4.3292121355599694e-05 1.0183867709886604e-05 1.942013879133786e-06 4.0315405174090373e-07 9.21671714596369e-08 2.4098688071647975e-08 7.225572941254433e-09 2.4834676065394215e-09 9.732319970713734e-10 4.3197310923021534e-10 2.1559409064040853e-10 1.2012397067234644e-10 7.420434736058538e-11 5.0502176113100505e-11 3.7662533884158465e-11 3.064646888042886e-11 2.7117570260457447e-11 2.6038331219353762e-11 0.9999984675863323 0.08379604642227326 0.0067949979162456615 0.0007584802347679084 9.76455452440711e-05 1.3250609905541624e-05 1.817308276973813e-06 2.462934440988419e-07 3.239658625884541e-08 4.06772784001835e-09 4.843356166710095e-10 5.480451447281232e-11 5.7343090190007824e-12 5.378492343657774e-13 4.554341391263017e-14 3.3674706084718444e-15 1.7858090773970142e-16 5.034548017366384e-18 2.015967217443668e-22 7.678932447275834e-27 2.9156056279099964e-31 1.1070811942673243e-35 2.084740227513382e-05 6.6160878380966085e-06 1.5058502127670335e-06 2.7272318305839316e-07 5.300752514810732e-08 1.1239601454284661e-08 2.712737470956368e-09 7.502602701674183e-10 2.384332525267397e-10 8.680813492100063e-11 3.6022310336058e-11 1.6932107343182138e-11 8.95579090052463e-12 5.2946582673747545e-12 3.477158869413209e-12 2.522713915279199e-12 2.013064287367358e-12 1.7606038669371986e-12 1.6839757831612942e-12 0.999998451798142 0.06454709566416747 0.00402321002437117 0.0003530147254455957 3.723837923494329e-05 4.29691654817228e-06 5.136678200737088e-07 6.159280139044994e-08 7.241193314310659e-09 8.196694948897856e-10 8.828369754805101e-11 8.954849793541686e-12 8.333355201599629e-13 6.896681773945123e-14 4.886369792417084e-15 2.828034828182854e-16 1.2513377378299286e-17 2.911555150151251e-19 1.152520685482564e-23 4.450414638095302e-28 1.7138891857250869e-32 6.599633816153539e-37 2.987140929524023e-06 9.398133104713852e-07 2.085787871421195e-07 3.630296162039264e-08 6.702661367413783e-09 1.3391081024413228e-09 3.031131718250141e-10 7.850333960038529e-11 2.339036956161167e-11 8.010041071919218e-12 3.1413403654492416e-12 1.4035734605648693e-12 7.102444634851845e-13 4.0445293679841295e-13 2.5761722960930233e-13 1.8253564264527902e-13 1.4323064686082411e-13 1.2401534907115973e-13 1.1822185010066224e-13 0.9999984408715694 0.051020227308724374 0.002514980693612269 0.0001762581030862896 1.5212842556050864e-05 1.4777425670844396e-06 1.5227604088493007e-07 1.600431024842438e-08 1.6680906368892865e-09 1.6868843746093617e-10 1.6270897101514022e-11 1.4715977274637231e-12 1.2159772539032555e-13 8.89467513625956e-15 5.523642963173417e-16 2.7316657962534088e-17 9.547395192884563e-19 1.7453432938466343e-20 6.795840856264701e-25 2.653277114624246e-29 1.0335756954260021e-33 4.025434378710838e-38 4.012180647048757e-07 1.2539069814177776e-07 2.7291479744570432e-08 4.605421168687791e-09 8.167455789094602e-10 1.5567025128349769e-10 3.347472630529883e-11 8.221984895684476e-12 2.3243549658626773e-12 7.569127176916247e-13 2.832918496569411e-13 1.2135285949819043e-13 5.917847002536877e-14 3.2657313855720686e-14 2.0274031021115482e-14 1.4082161614625103e-14 1.0894535857021172e-14 9.35350972739829e-15 8.891482401832732e-15 0.9999984328737087 0.04106171984053913 0.0016330091585682726 9.287607492831249e-05 6.593038647166503e-06 5.368408918290854e-07 4.727132889554032e-08 4.313455175913908e-09 3.949617565405321e-10 3.5369770830636644e-11 3.0316873093898203e-12 2.4346323879627013e-13 1.7833503381778624e-14 1.1535694929441887e-15 6.311205536537852e-17 2.7348386024923332e-18 8.337934743068872e-20 1.3400125528148748e-21 4.1182143835914527e-26 1.6222715677044016e-30 6.37854611678698e-35 2.5073177746475516e-39 5.0966107201659916e-08 1.5845944229505364e-08 3.397083093411852e-09 5.596040780152888e-10 9.616106987501232e-11 1.7660146831339244e-11 3.646041108179131e-12 8.583806252680953e-13 2.326230161048349e-13 7.273167624640256e-14 2.6207844348170188e-14 1.0847305685543283e-14 5.132266943800028e-15 2.7603488850504455e-15 1.677973144718506e-15 1.1466637793914207e-15 8.768549791662019e-16 7.476332499530135e-16 7.09061860678597e-16 0.999998426803978 0.033488584131188916 0.0010894540249083119 5.091829348302598e-05 2.9944409063221915e-06 2.0444639698194397e-07 1.530818860078201e-08 1.2038176210761583e-09 9.6062487612161e-11 7.559679999469968e-12 5.721999257385863e-13 4.0649162464713745e-14 2.6353736159567623e-15 1.5080793127205626e-16 7.288903699771925e-18 2.7851519333798704e-19 7.47977721432386e-21 1.061500252728033e-22 2.569581514846809e-27 1.0195723373786342e-31 4.038989687883798e-36 1.599704428486455e-40 6.165964692598995e-09 1.9094244940197985e-09 4.0458223803106634e-10 6.54142762294384e-11 1.096828999050157e-11 1.9568325642364364e-12 3.913119063135118e-13 8.910842726216039e-14 2.3356397867009792e-14 7.0713968730659184e-15 2.4725683689818276e-15 9.958691733599131e-16 4.600316870557859e-16 2.4243191928501013e-16 1.4493458619617854e-16 9.777215199348224e-17 7.408354701855599e-17 6.282106314889881e-17 5.947175007176364e-17 0.9999984220893168 0.027601557766009047 0.0007421330678741408 2.877718653647989e-05 1.411865517384805e-06 8.10500858807828e-08 5.152613390355948e-09 3.476210797632834e-10 2.4030571495965004e-11 1.6516384871467365e-12 1.0982557044759887e-13 6.879005784129651e-15 3.941360521277168e-16 1.995816564253079e-17 8.540774961549597e-19 2.890629046176274e-20 6.883477209091162e-22 8.692072652730488e-24 1.6626659359642174e-28 6.635780644791714e-33 2.6449223642200228e-37 1.0540147347748951e-41 7.143120877258211e-10 2.2053024920764303e-10 4.6313001343586715e-11 7.38229011819544e-12 1.21487304363476e-12 2.1199857405701457e-13 4.137221969167158e-14 9.184155420561839e-15 2.3466372965434587e-15 6.932113211798696e-16 2.368896618615366e-16 9.345306197841842e-17 4.2392365130526814e-17 2.1998931686631073e-17 1.2987874822673652e-17 8.677038113502109e-18 6.529918168937881e-18 5.5146390291297945e-18 5.213498022529727e-18 0.9999984183721442 0.02295837285813862 0.0005146287371031404 1.6689219840762557e-05 6.875669511541139e-07 3.3320832753593484e-08 1.800237207770672e-09 1.0401001449443664e-10 6.206309186473512e-12 3.7091970057887353e-13 2.1579824852188584e-14 1.1882775651247444e-15 6.007702386921619e-17 2.6921302211990727e-18 1.0218297718927194e-19 3.0741309117217102e-21 6.526742911262611e-23 7.385909421263626e-25 1.1314033202531552e-29 4.536751317297295e-34 1.8171709065099473e-38 7.27748867585783e-43 7.955911862983437e-11 2.4507318195448113e-11 5.113101656745851e-12 8.065342878530816e-13 1.309147521279557e-13 2.2477352391703477e-14 4.308930439086714e-15 9.389382694489745e-16 2.3551039228936515e-16 6.834912713273733e-17 2.297656074152526e-17 8.93191761675472e-18 4.000324850735556e-18 2.0538041437399546e-18 1.2021094804117884e-18 7.978377918573427e-19 5.9763444038033025e-19 5.03320438449669e-19 4.754047706223975e-19 0.9999984154150249 0.019263917531636275 0.00036299522758515256 9.919531401141064e-06 3.4542058756007183e-07 1.4202229978322605e-08 6.540041535629979e-10 3.238106172542034e-11 1.665825315209965e-12 8.636310974013496e-14 4.384095948080607e-15 2.1173006262543594e-16 9.43143158964132e-18 3.738519664657824e-19 1.2597303874989225e-20 3.377036950618946e-22 6.4181247885747495e-24 6.545709535846414e-26 8.264598819612272e-31 3.326204265083005e-35 1.3374805724242571e-39 5.377530301307558e-44 8.54275151983511e-12 2.6274390294491345e-12 5.457146607253595e-13 8.546587072499844e-14 1.3743351759613282e-14 2.3338777020768203e-15 4.4209081597142107e-16 9.51571756185082e-17 2.358148236776313e-17 6.766275468656643e-18 2.2512406736562373e-18 8.672626879640435e-19 3.8546260480913044e-19 1.966683139026213e-19 1.1454719728949827e-19 7.574776664557131e-20 5.659819373838875e-20 4.7596997810322453e-20 4.493529828079267e-20 0.9999984130537232 0.016313492364687827 0.00026067346305707755 6.051480757709074e-06 1.7941828331084076e-07 6.297891250875027e-09 2.4838301969367055e-10 1.0571696542257138e-11 4.695159872349861e-13 2.111288418834649e-14 9.341241999633843e-16 3.950827955760354e-17 1.548384731389249e-18 5.424006424529849e-20 1.6221500710723228e-21 3.8774674190019165e-23 6.607933353835338e-25 6.091358266575592e-27 6.670461857497493e-32 2.6923571638920134e-36 1.0858380293365521e-40 4.3792268272631716e-45 8.856832595874611e-13 2.721590056083036e-13 5.63787038165456e-14 8.793047697067236e-15 1.4064634692405624e-15 2.373871333026996e-16 4.4676062655744284e-17 9.55467077845477e-18 2.353555534653672e-18 6.7169976878038825e-19 2.2247581694079033e-19 8.539744910706239e-20 3.785223880794749e-20 1.9275618338591105e-20 1.1212321916269767e-20 7.408812082592838e-21 5.533416168695212e-21 4.6523919414759044e-21 4.392003330974526e-21 0.9999984111699893 0.0139595844990814 0.00019105760895007898 3.8041433970505733e-06 9.689083799338359e-08 2.92703265584253e-09 9.956156303110368e-11 3.663578180263521e-12 1.4106111724173826e-13 5.516364023021741e-15 2.1298905477435808e-16 7.889666439180213e-18 2.7183821258641447e-19 8.404038593763584e-21 2.2271938934297795e-22 4.7389118415011316e-24 7.229779043159312e-26 6.015635667145043e-28 6.184615140939121e-33 2.5014515124104966e-37 1.0111457635800718e-41 4.087492276453388e-46 8.869141945088224e-14 2.7245791641819477e-14 5.639313801624608e-15 8.784472055852772e-16 1.4030631784671985e-16 2.3647071874529595e-17 4.4450708044798916e-18 9.4995014686282e-19 2.3396223539591345e-19 6.680610212485806e-20 2.2152678279053486e-20 8.517991736139019e-21 3.783556156426977e-21 1.931177248585246e-21 1.1259127686468341e-21 7.454965389804585e-22 5.576926267812398e-22 4.693864249952848e-22 4.432716633837133e-22 0.9999984096767806 0.012093564596612231 0.0001434895351347863 2.4790284726708876e-06 5.484603537230266e-08 1.4411089209330322e-09 4.269380250480878e-11 1.3703013807328002e-12 4.6092051106045043e-14 1.5773095026239656e-15 5.33890900952249e-17 1.7371173721020185e-18 5.2680505271247e-20 1.436527402799689e-21 3.365802650861573e-23 6.348699968159572e-25 8.619690167669821e-27 6.425373595873433e-29 6.913758458801992e-34 2.80037220292322e-38 1.1337122832709117e-42 4.590439976305663e-47 8.570583680487943e-15 2.6337076614912374e-15 5.456566119585841e-16 8.514133245211339e-17 1.3632248148360556e-17 2.3051172411594182e-18 4.351006906092672e-19 9.344993033446521e-20 2.3148738765216873e-20 6.6525454688414484e-21 2.22114459800191e-21 8.601221092764818e-22 3.847231489108643e-22 1.9766342539308632e-22 1.1592146673317457e-22 7.7132377269773e-23 5.791463243448388e-23 4.8855860409300325e-23 4.617329463691147e-23 0.9999984085095354 0.010634830692735272 0.00011100685149101753 1.6882670312617308e-06 3.290697867077223e-08 7.624343696950438e-10 1.9935036922218975e-11 5.651770179700663e-13 1.68051408651966e-14 5.087109333927312e-16 1.523810783000435e-17 4.388299242204949e-19 1.1777503660523748e-20 2.840668771401077e-22 5.8813068870975356e-24 9.790161339902489e-26 1.1718759206777879e-27 7.71048342346253e-30 9.889006779969022e-35 4.00883801140375e-39 1.6244745852549024e-43 6.58404920921188e-48 7.974089899885315e-16 2.4527902269251785e-16 5.0965423629929735e-17 7.990421457312619e-18 1.287805849203781e-18 2.195605729126455e-19 4.18478880170888e-20 9.087116994501209e-21 2.277975391617766e-21 6.6291288957838495e-22 2.2417702253805833e-22 8.791065149472749e-23 3.9795267044326505e-23 2.0671381603081076e-23 1.2239335123332705e-23 8.207856878899525e-24 6.198615338609515e-24 5.247744595032364e-24 4.965561302127732e-24 0.999998407619225 0.00952223096519841 8.901753239157803e-05 1.2130867618231833e-06 2.1200454271112132e-08 4.40727456339137e-10 1.0347223859251684e-11 2.635840600172869e-13 7.045774600388528e-15 1.9176544966786541e-16 5.163068016481408e-18 1.3352788454671417e-19 3.212708173872285e-21 6.926478122058248e-23 1.2760818509307301e-24 1.877784970143378e-26 1.9691194006131133e-28 1.1231745361276004e-30 1.9340030735747678e-35 7.841671228902757e-40 3.1785684265735274e-44 1.288792642049385e-48 7.1157224407674e-17 2.1925036620294088e-17 4.578683347597964e-18 7.237643341584738e-19 1.1795248515030817e-19 2.0386777503905926e-20 3.947641346287208e-21 8.723040656807948e-22 2.2276566547254954e-22 6.607514311362276e-23 2.2773993659876543e-23 9.096615000814569e-24 4.189410565850422e-24 2.2102862914755825e-24 1.3263501546277236e-24 8.991774247492536e-25 6.8451350019169035e-25 5.823475143547194e-25 5.519358324138381e-25 0.9999984069685953 0.008709011375820043 7.447796903806837e-05 9.289111468223107e-07 1.4868078806935509e-08 2.833221865534526e-10 6.102737082255733e-12 1.4275528418701598e-13 3.506417672686138e-15 8.77327025213645e-17 2.171493258597753e-18 5.158678786206595e-20 1.1380889012474003e-21 2.2424651889095013e-23 3.754340654823529e-25 4.973797322064291e-27 4.6253866780266394e-29 2.284838378734834e-31 5.5409931930818574e-36 2.245782379419007e-40 9.100431866980959e-45 3.689162366175729e-49 6.054949781534648e-18 1.8703911256569905e-18 3.93555720496423e-19 6.297261197789021e-20 1.043193700202268e-20 1.8392933123025696e-21 3.6433199626452437e-22 8.251747495438791e-23 2.162552620949921e-23 6.584898990469628e-24 2.3290238639063476e-24 9.535286697433122e-25 4.4929524521768115e-25 2.419388591508655e-25 1.4774175798973122e-25 1.0157803853727531e-25 7.812938494124136e-26 6.688840154875171e-26 6.352933298235946e-26 0.9999984065289981 0.008159699267692779 6.53990690571582e-05 7.64936921062979e-07 1.149260938487582e-08 2.058061896123253e-10 4.171328538288301e-12 9.194728071097206e-14 2.131289677772501e-15 5.0386457406551285e-17 1.1795029084615925e-18 2.6517146965503653e-20 5.534664507590741e-22 1.0302761598779854e-23 1.6242178399954395e-25 2.0132849743500117e-27 1.730782721959201e-29 7.724348593001337e-32 2.47415443400642e-36 1.001793183744063e-40 4.0556921932049536e-45 1.642730732163404e-49 4.872450685295055e-19 1.510520765806878e-19 3.2120971559569854e-20 5.227796020116724e-21 8.858635131281941e-22 1.605066596805334e-22 3.278554379843896e-23 7.675000376810227e-24 2.0813514732460622e-24 6.558624362919499e-25 2.3983982683599416e-25 1.0134257929760953e-25 4.9155813778417204e-26 2.715905840763244e-26 1.6951318392683778e-26 1.1860696103592523e-26 9.240160325658704e-27 7.972536415903759e-27 7.591970185841992e-27 0.9999984062792572 0.007847574203518734 6.051928085528671e-05 6.817126690918885e-07 9.876557648502474e-09 1.708325840592399e-10 3.350932732405957e-12 7.163823164623922e-14 1.6142262725016374e-15 3.7185767544628663e-17 8.502186973121556e-19 1.870945341492978e-20 3.828999165793855e-22 6.997375337320394e-24 1.0832854725339672e-25 1.3170749522457854e-27 1.106353797314374e-29 4.780085988265168e-32 1.8012491861585915e-36 7.281429572461947e-41 2.943323672911535e-45 1.190466423159603e-49 3.664660502806171e-20 1.1416950397292301e-20 2.4631622725079006e-21 4.102645314271073e-22 7.167222876829108e-23 1.3465814263461806e-23 2.8639383802755914e-24 6.998117906284473e-25 1.9828113689445824e-25 6.525328674772043e-26 2.4881186809108793e-26 1.0933747073297747e-26 5.496169068288905e-27 3.133820936555822e-27 2.0087148530417274e-27 1.4356782454251845e-27 1.1358989637347932e-27 9.893297522157628e-28 9.45073696532711e-28 0.99999840620305 0.007752231629420536 5.909766380532616e-05 6.588506381044537e-07 9.463312761846525e-09 1.6263198415125302e-10 3.177830996198168e-12 6.787636545470147e-14 1.5329968119356304e-15 3.5521573115801804e-17 8.198338354096341e-19 1.8274559978337898e-20 3.801598481422355e-22 7.084258253618654e-24 1.1214214688620708e-25 1.3970083126512997e-27 1.2037046350633163e-29 5.33127429133893e-32 2.1774258256321093e-36 8.781632786836982e-41 3.5416625199667604e-45 1.4294978383143767e-49 2.533661901083372e-21 7.946811116709415e-22 1.7485152405473932e-22 3.004591709325717e-23 5.466766344173858e-24 1.077290374365591e-24 2.4143484125737885e-25 6.231570666573358e-26 1.8658275282490648e-26 6.480981942198275e-27 2.601642866997385e-27 1.1991878206510932e-27 6.294114750950219e-28 3.727128795647167e-28 2.466297209810727e-28 1.807922969048231e-28 1.4569702424465474e-28 1.2832028506061185e-28 1.230393808889805e-28 0.9999984062872463 0.007857512799135963 6.0769362368312454e-05 6.883643654140359e-07 1.00672123361892e-08 1.7663455130741491e-10 3.5349758699052617e-12 7.762058198255862e-14 1.8096034783364918e-15 4.347187264306786e-17 1.0450051844174443e-18 2.437592667358795e-20 5.331043133057847e-22 1.0490535029279877e-23 1.7607266648727266e-25 2.3338068986613054e-27 2.1454186801440243e-29 1.015435010844149e-31 4.318994702925739e-36 1.7365102879813029e-40 6.982569234689015e-45 2.810368919247166e-49 1.5716432022611656e-22 4.97556216297802e-23 1.1247567217816815e-23 2.0165123434556005e-24 3.8741598419694484e-25 8.128843833748065e-26 1.9491657443562147e-26 5.392595589617034e-27 1.7296750819719262e-27 6.420318090635439e-28 2.7433536484979354e-28 1.3392363959136116e-28 7.400693627399253e-29 4.5834466795636384e-29 3.1491257942632256e-29 2.3783216648383456e-29 1.95850282013589e-29 1.747658172159579e-29 1.683092711679349e-29 0.9999984065219762 0.008150921451883565 6.546202940328073e-05 7.713812925302737e-07 1.1764618633494345e-08 2.1593317064438262e-10 4.537911021821297e-12 1.0507613086557169e-13 2.5958636392979304e-15 6.642639701260952e-17 1.7103441302197945e-18 4.297717580186816e-20 1.0183411403112653e-21 2.183059763865152e-23 4.011818930703706e-25 5.848291282295958e-27 5.933625490056189e-29 3.1065502399919625e-31 1.349968995017911e-35 5.406405535129565e-40 2.1655015531957638e-44 8.6833069602372e-49 8.427820110373015e-24 2.7038202869542225e-24 6.351004661146469e-25 1.2078931348529934e-25 2.4991606475652405e-26 5.699605384650809e-27 1.4918050578828724e-27 4.506497766829587e-28 1.5743003919129014e-28 6.3362402555973e-29 2.918616778470571e-29 1.5255575763854626e-29 8.958857468670472e-30 5.8485308647098494e-30 4.1989417853124835e-30 3.283460153354497e-30 2.7728160841710113e-30 2.5123031419216608e-30 2.431867115949353e-30 0.9999984068981397 0.00862103197929643 7.3314264494269e-05 9.165693514527468e-07 1.4871336094832718e-08 2.9138521610599574e-10 6.564665096225373e-12 1.6376014941609254e-13 4.382408565361233e-15 1.2221318966311257e-16 3.451552559051259e-18 9.577457576784711e-20 2.5229773033523678e-21 6.052714707298433e-23 1.2525277286565897e-24 2.06736539306343e-26 2.3854033918860517e-28 1.4242534286588904e-30 6.261134331625897e-35 2.495086176683408e-39 9.945010559137808e-44 3.969091580249905e-48 3.673384346924e-25 1.2025653230628908e-25 2.9915942447391554e-26 6.2009230727158856e-27 1.4241074646877505e-27 3.6369934951664864e-28 1.0678085421463296e-28 3.6070371559335867e-29 1.4007077761030256e-29 6.219271080870509e-30 3.1336191558208928e-30 1.7755690562302626e-30 1.1196895269345101e-30 7.7723094702140155e-31 5.872616747532845e-31 4.781357939813501e-31 4.157382758672214e-31 3.8339267464613154e-31 3.7331559790404883e-31 0.9999984074059566 0.00925577902660905 8.460960824719734e-05 1.1393715123676373e-06 1.9970507939185753e-08 4.2431504962901447e-10 1.0414058937912523e-11 2.845493343313436e-13 8.392575775489545e-15 2.5972518881783593e-16 8.200264430424273e-18 2.5638529785491746e-19 7.6712942260366e-21 2.1070418768529174e-22 5.0299003490204575e-24 9.641413328270244e-26 1.2990327047773433e-27 9.090197686668333e-30 4.020952207157892e-34 1.5925546806670468e-38 6.309129267322787e-43 2.503361600698162e-47 1.156711273785871e-26 3.9208356380077746e-27 1.0732585042130767e-27 2.549443427377316e-28 6.842245433037033e-29 2.0495694798187118e-29 7.017433537355883e-30 2.7359166834364855e-30 1.2114016016569036e-30 6.056974234573432e-31 3.3949381101573945e-31 2.114565946620419e-31 1.448721841034833e-31 1.079766167490441e-31 8.65520128644859e-32 7.383457188208042e-32 6.64032369742996e-32 6.25014775094021e-32 6.127604111900249e-32 0.9999984080349215 0.010041922197127314 9.970898928651504e-05 1.461560919648995e-06 2.797140886494505e-08 6.515422884806566e-10 1.761877573787115e-11 5.335764301233616e-13 1.7562614648682666e-14 6.112366311616115e-16 2.1889099893371353e-17 7.83309707214514e-19 2.708092018154704e-20 8.677290211219987e-22 2.4387433439106564e-23 5.54976445858719e-25 8.939676788485808e-27 7.515512917854922e-29 3.334629706067256e-33 1.3108573272132881e-37 5.154085351484122e-42 2.030319214474296e-46 1.9388161039468186e-28 7.125566826286276e-29 2.3933817869022973e-29 7.354598047142509e-30 2.5594856561271537e-30 9.7417761718164e-31 4.126581284298188e-31 1.9390170695045264e-31 1.0109632946229888e-31 5.833598799043974e-32 3.7082495815868e-32 2.5791271805049316e-32 1.9449832674302293e-32 1.5736739611860846e-32 1.350449090614543e-32 1.2158184269355449e-32 1.1369919915648548e-32 1.0958146339821928e-32 1.0828996049724029e-32 0.9999984087711097 0.01096207473250395 0.00011895242640526912 1.90968182161921e-06 4.015584804708759e-08 1.0321585955285501e-09 3.096233277908932e-11 1.0469349212427299e-12 3.876677459216126e-14 1.5310002742673598e-15 6.28183899498835e-17 2.6027864096707793e-18 1.0536480771911987e-19 3.998757934855284e-21 1.3462315023355495e-22 3.708687596983944e-24 7.297947898678815e-26 7.5437912848589675e-28 3.351352213782828e-32 1.3052331077784645e-36 5.084465278690814e-41 1.9851000419350927e-45 2.4779831784372467e-29 3.427381906525392e-32 1.3774127084769913e-31 1.0341991841714505e-31 6.332456141264387e-32 3.617931663095172e-32 2.092138961660512e-32 1.2604294265532533e-32 8.064101941797239e-33 5.5297013436765344e-33 4.075467326075436e-33 3.221372408844589e-33 2.713448092498974e-33 2.4131056769181818e-33 2.240297838759305e-33 2.1468394101352003e-33 2.1007669093947033e-33 2.081276649337e-33 2.0758918757695697e-33 0.99999840959616 0.011993333369622713 0.000142544372843889 2.5119529581812266e-06 5.817388243831317e-08 1.6540630109393882e-09 5.519889231727286e-11 2.090793404649257e-12 8.743787278282025e-14 3.937463910172154e-15 1.8623395600172025e-16 9.003765644659615e-18 4.3095126178767413e-19 1.9608662967986606e-20 8.026785327149627e-22 2.725092385756187e-23 6.686480118921338e-25 8.695542334466987e-27 3.8636820322472024e-31 1.4877686359059406e-35 5.729768632660734e-40 2.2125209311617778e-44 1.7887367778318196e-26 3.431949489911115e-27 1.48939553536189e-28 9.977624339592896e-31 6.1587444482019855e-34 9.044056717367473e-34 8.640840975087358e-34 7.329459831650739e-34 6.0727461728156975e-34 5.123822964567058e-34 4.489185484689406e-34 4.112518631969922e-34 3.9333896885589555e-34 3.900029623155527e-34 3.9655370590470845e-34 4.086495638872018e-34 4.216855680554028e-34 4.315393389905332e-34 4.351308650384436e-34 0.9999984104869382 0.013106785126193907 0.0001704193734343923 3.2926161584312016e-06 8.388262381202143e-08 2.6356355498861486e-09 9.777204571266887e-11 4.1466602783846665e-12 1.9589307133209597e-13 1.0069508239114034e-14 5.502969314074787e-16 3.1171641179453584e-17 1.77551072544208e-18 9.777693959271347e-20 4.930257925838287e-21 2.0978356204838056e-22 6.553053704568045e-24 1.0985252988062988e-25 4.879487405630344e-30 1.8527677704882462e-34 7.034689097692141e-39 2.679550560773309e-43 7.776042508433072e-25 1.6531038027758366e-25 1.0479489623426655e-26 2.6272672456430445e-28 1.3643902807557864e-30 1.0200204976602284e-35 2.6461157988612343e-35 3.686233431059295e-35 4.2481871200458984e-35 4.5958902244626634e-35 4.92