# vtk DataFile Version 3.0
vtk output
ASCII
DATASET RECTILINEAR_GRID
DIMENSIONS 41 41 1
X_COORDINATES 41 double
0 1 2 3 4 5 6 7 8 9 10 11 12 13 14 15 16 17 18 19 20 21 22 23 24 25 26 27 28 29 30 31 32 33 34 35 36 37 38 39 40 
Y_COORDINATES 41 double
0 1 2 3 4 5 6 7 8 9 10 11 12 13 14 15 16 17 18 19 20 21 22 23 24 25 26 27 28 29 30 31 32 33 34 35 36 37 38 39 40 
Z_COORDINATES 1 double
0
POINT_DATA 1681
FIELD FieldData 1
Concentracao 1 1681 double
0.0 2.4272182032271137e-76 4.101563133264954e-74 4.8848537827821224e-68 3.5176046348675625e-62 1.5001363923861e-56 3.6921543714273036e-51 4.8164945944175795e-46 2.630504507425666e-41 2.3211651120195863e-37 3.1485027531351176e-34 1.383180872358325e-29 2.490149415101815e-24 1.525553809205929e-19 4.0875048508065876e-16 1.7352870761793141e-13 1.6993019431067417e-11 1.513404332692103e-09 2.352692537870062e-10 4.491505662512359e-12 3.85267333732685e-12 8.309395940531688e-11 2.3668049177299865e-15 1.6420959771072385e-15 1.1459555776607764e-15 8.822541255817803e-16 7.055651475758341e-16 5.809624053334161e-16 4.870168106092494e-16 4.1294062108530393e-16 3.524394812746257e-16 3.462326119552795e-16 4.36129870300085e-15 1.6777945291289283e-13 3.5545251153402953e-12 4.280483840915841e-11 3.081262835159743e-10 1.35374182910128e-09 3.6051409578940163e-09 5.6706379002340734e-09 5.534303976761196e-09 8.407194269802636e-76 3.0340251812520954e-70 5.1269579316244155e-68 6.106072113331436e-62 4.397009311189088e-56 1.8751719148386929e-50 4.615196656438501e-45 6.0206228857314275e-40 3.2881332078378116e-35 2.901458633880291e-31 3.9356315794351678e-28 1.7289774114375107e-23 3.1126892590266837e-18 1.906943763349347e-13 5.109385151013085e-10 2.1691105805112188e-07 2.12412912818537e-05 0.0018917568939849129 0.00029408680250301157 5.6143865447126405e-06 4.815845511767368e-06 0.0001038675323506055 2.9585085139674007e-09 2.052621613480025e-09 1.4324456005378202e-09 1.1028185186618721e-09 8.819571400349402e-10 7.2620358698418e-10 6.087715002783722e-10 5.16176189297251e-10 4.405496972831068e-10 4.327911111767113e-10 5.451627629894266e-09 2.0972448140586953e-07 4.443159871747238e-06 5.350609043609921e-05 0.00038515816252125137 0.001692178640118429 0.004506429802508478 0.007088303045930492 0.006917885505255472 2.0577603511235713e-69 9.713579894990742e-64 6.765598720613002e-63 5.515173928773378e-61 3.052091706401364e-55 1.2023522670697964e-49 2.8448520966702473e-44 3.669082700854054e-39 2.0461169481735386e-34 2.094502084721749e-30 4.53766310049518e-27 2.349363042395112e-22 3.7151272136954227e-17 1.761315983148702e-12 3.533814833965367e-09 1.047728374590145e-06 0.00010270656263085468 0.00387500783654159 0.0002127117815006699 9.17496287780766e-07 4.5205835380394556e-09 4.88828758451211e-06 3.183318820290824e-09 2.399516332146473e-09 1.9585868997422532e-09 1.620417287741326e-09 1.3703420013723024e-09 1.1736497845792328e-09 1.0143713692379909e-09 8.812435717861301e-10 7.676494188092245e-10 8.197506002809531e-10 1.354018372409674e-08 5.001330397981819e-07 1.0083996454342096e-05 0.0001161495677398444 0.0008024199059671179 0.0033890250625213864 0.008673010777151734 0.01307105408154707 0.012249631931563214 2.751041403866769e-63 1.443950332670908e-57 7.709044112796603e-57 5.298002340617391e-56 4.783310118877837e-54 1.4240670283132884e-48 3.1184252206860867e-43 3.870684796914209e-38 2.1631472518555942e-33 2.647934657542323e-29 7.954821952915318e-26 1.9839951901347268e-21 2.536644034831301e-16 9.198434854030007e-12 1.3710916175851676e-08 3.177041438219826e-06 0.00023318689264738122 0.005812607144138926 0.0002253323662323777 9.127383396357879e-07 2.862887446747202e-09 4.76573826401931e-06 3.5440080586666056e-09 2.678656055538375e-09 2.2390357550742613e-09 1.9266990499020185e-09 1.678115896777182e-09 1.4737701695626583e-09 1.3003406797699807e-09 1.1496493158353343e-09 1.0175520680450893e-09 1.245725932033112e-09 2.7698459522410636e-08 9.584648684245944e-07 1.807298424463255e-05 0.00019633363586702638 0.0012867536325843769 0.005174537965109261 0.012624632587230797 0.018119794067101385 0.016261322255613723 2.1160248073145554e-57 1.1770314557182518e-51 5.453910232427313e-51 3.006569318427761e-50 2.87295837919292e-49 9.269866764573785e-47 1.4582522356648654e-41 1.50211139702297e-36 6.99310540666877e-32 8.504739768986975e-28 3.037383923945408e-24 1.7579176301791617e-20 1.3258735662375417e-15 3.580788175592593e-11 4.061269737172367e-08 7.352005887260047e-06 0.00041387151018546235 0.007829113963270806 0.00022831791323621648 8.989128907423325e-07 2.7953552189314373e-09 4.763547608747738e-06 4.033864028132911e-09 2.931224639744708e-09 2.458418302529265e-09 2.1426700842398718e-09 1.89650127076658e-09 1.6908518854548977e-09 1.5126586541568467e-09 1.3541408275867715e-09 1.214880818918784e-09 1.8893344472413786e-09 5.546289151633232e-08 1.7484275313278467e-06 3.026882179766988e-05 0.0003056826274531906 0.0018786672459082247 0.007125562889482623 0.01644646639549324 0.022351076785783467 0.019165519594134803 9.992512378119795e-52 5.751922514415478e-46 2.4237557797265028e-45 1.1548724632004334e-44 8.962518527193866e-44 2.3834921913198275e-42 9.297018130643342e-39 3.908525984811252e-34 8.53068326904845e-30 6.636632175709183e-26 2.0821306631579916e-22 4.419104722024222e-19 6.129966328184142e-15 1.178026605105512e-10 1.0248985460792632e-07 1.469776242839852e-05 0.0006629917508522119 0.009962934175304092 0.0002323890534715854 8.719194513216713e-07 2.6775983449979e-09 4.762286253998351e-06 4.658549490997589e-09 3.192068490314704e-09 2.649680803430429e-09 2.3164255140086443e-09 2.065576006526268e-09 1.8580776073959837e-09 1.6773977741474578e-09 1.5149188395681379e-09 1.3802752663266916e-09 3.2349961784716234e-09 1.1460992395718878e-07 3.1944686812321585e-06 4.981371826270933e-05 0.00046095334353145855 0.0026267359590097152 0.009311659836682801 0.0201863802031337 0.025839384233988134 0.021134252202518466 2.8594845982842207e-46 1.6821974110914986e-40 6.636715476899835e-40 2.8426617354233722e-39 1.8750668738583e-38 3.4571047771433424e-37 1.1640640280032398e-34 5.30961195942455e-31 2.7963855905759113e-27 9.178919565503227e-24 1.7768347984896464e-20 2.3698016127430624e-17 3.329275291344611e-14 3.527814838708836e-10 2.3523227709095164e-07 2.711796505381118e-05 0.0010013394637526161 0.0122686667841162 0.00023407500102048362 8.333863952630108e-07 2.5159540532370438e-09 4.761276572486068e-06 5.412290221197028e-09 3.4674140105774353e-09 2.8287936998817095e-09 2.466056476333849e-09 2.2048824551903436e-09 1.9931618185409336e-09 1.809889839972122e-09 1.6448819946399975e-09 1.5476425103244004e-09 6.788893051030355e-09 2.492193386747683e-07 5.959115268413135e-06 8.212001136643487e-05 0.0006866191104023818 0.0035891987730014034 0.011792837724924928 0.023855259680971144 0.02862764957962197 0.022310370631825734 4.656972753717036e-41 2.7798035833993814e-35 1.0415866537267234e-34 4.0951949835020125e-34 2.3434096690600617e-33 3.103127794516515e-32 2.5791089484888822e-30 1.3783630716134931e-27 1.4445517983940169e-24 1.594716193151472e-21 1.4810754457905729e-18 1.1255680299905428e-15 7.524662406914787e-13 1.0345983401403876e-09 5.126873802495355e-07 4.7681641233950324e-05 0.0014591634882824952 0.014782545344620326 0.0002340144353847016 7.862069998643536e-07 2.3326214427542475e-09 4.7605105129003465e-06 6.2888343391377175e-09 3.7594497707735684e-09 3.0016878711066548e-09 2.600520015506836e-09 2.3244074614397084e-09 2.1061790732801265e-09 1.9195070559301616e-09 1.7539165742563202e-09 1.8449350719588e-09 1.7664813780873096e-08 5.727933323468973e-07 1.1416379604595769e-05 0.00013653534797014098 0.001018174069048437 0.004835018553139466 0.0146147948790584 0.027428537674022823 0.030738246609828476 0.022815473736416843 3.641779092062311e-36 2.1961396460026646e-30 7.849891341162635e-30 2.8465837815596283e-29 1.4071378893728646e-28 1.2835398736495058e-27 3.383339453942157e-26 3.2070127974002003e-24 7.477480423033912e-22 2.6440382819354033e-19 1.0429030406089152e-16 3.9502702712195264e-14 1.3451764661747949e-11 4.141327868498414e-09 1.103371607319447e-06 8.157293067631054e-05 0.0020789234281504776 0.017547903608111277 0.00023222576018696892 7.326629047295121e-07 2.137634267808883e-09 4.75990969499929e-06 7.280291450298061e-09 4.0669272931482315e-09 3.170966607941335e-09 2.724356192381203e-09 2.4298367174971304e-09 2.2032692738289072e-09 2.0130176293670188e-09 1.867230588040358e-09 2.9708644105808816e-09 5.431093387841934e-08 1.38478592855786e-06 2.2426474436643084e-05 0.00022901776308101478 0.0015058614117686166 0.006441885973411586 0.01780024183177657 0.030847747860961137 0.03218316850951674 0.02275595627182883 8.053182940794761e-32 4.8930608696142386e-26 1.6373517936648702e-25 5.294981196408793e-25 2.129948911533346e-24 1.2925777336236554e-23 1.5078558902053526e-22 4.2451429096636796e-21 2.838510462199694e-19 3.450327950128604e-17 5.6848638761460365e-15 1.028741327270725e-12 1.7759355010578128e-10 2.5949662956451302e-08 2.671683607164026e-06 0.0001386043734270293 0.0029262770705181258 0.020606240271289326 0.00022877919388684503 6.745049509853548e-07 1.939027358745765e-09 4.759440379472979e-06 8.378675617307374e-09 4.388153732890154e-09 3.338026755140351e-09 2.8408404301094703e-09 2.5261029587874853e-09 2.2928210158799093e-09 2.117861004815598e-09 2.237862662823966e-09 9.155765296588223e-09 1.854668238242111e-07 3.4810201366928357e-06 4.4884124343200395e-05 0.00038619791559386913 0.0022181896659299004 0.008490637380572935 0.021340937074700018 0.03402589964453225 0.03297407492610592 0.022227545858032164 2.89460984691445e-28 1.7686569665271356e-22 5.565124714821963e-22 1.628226408562237e-21 5.555338281729549e-21 2.5455659385600994e-20 1.826272522589898e-19 2.4181416684314495e-18 6.425955192509823e-17 3.1363323026946224e-15 2.287710472480668e-13 2.020896299035218e-11 1.8181660321699016e-09 1.4276786852106e-07 8.159924107110296e-06 0.0002678323705314767 0.0041494963120182185 0.02401390978342321 0.0002236647773411508 6.132904096664105e-07 1.7436855598943397e-09 4.759073718413992e-06 9.58746212767903e-09 4.734530875076253e-09 3.5206850435822376e-09 2.978230049991598e-09 2.6657111117688385e-09 2.502153397160408e-09 2.692052695791463e-09 5.61308404236155e-09 4.5669964569831615e-08 6.659075882592243e-07 8.946242856530769e-06 9.063127026378681e-05 0.0006508816839187465 0.003243741915720805 0.011055861236484115 0.025188157151568226 0.03685543830448594 0.033130732075576035 0.021318347381444714 2.330744346943473e-25 1.430212781705683e-19 4.2776193683835004e-19 1.155018541856232e-18 3.480475340510639e-18 1.3109072944934228e-17 6.873517708734028e-17 5.62429141097576e-16 7.837904190757297e-15 1.853712296632248e-13 6.642495453487538e-12 3.041861052360039e-10 1.5003559716354393e-08 6.780197010337695e-07 2.3625875886700034e-05 0.0005211156734419156 0.006010356298824636 0.02767536701114405 0.00021626062929680137 5.530421682150237e-07 1.5665466521248908e-09 4.758789309564624e-06 1.1175827224135878e-08 5.414666291718815e-09 4.1090941546159855e-09 3.701460696860196e-09 3.817287002966481e-09 4.89452877864994e-09 9.59680723356137e-09 3.592454400764708e-08 2.49676157069611e-07 2.3960119038358933e-06 2.3031970405098346e-05 0.00018247760392937608 0.0010885358357418827 0.004688907257234945 0.01419097983214004 0.029246891941937025 0.03922052740353425 0.03268791142842176 0.02011063842710279 6.059730118485755e-23 3.73070966664476e-17 1.0669751647387387e-16 2.694520735413995e-16 7.348939992246282e-16 2.3834969097023193e-15 9.971218462955881e-15 5.840084982928258e-14 5.141331208254094e-13 6.9724881646731845e-12 1.382464969097423e-10 3.5559034460147836e-09 1.0229072510677701e-07 2.8221222971933043e-06 6.354334143476506e-05 0.0009779482060499986 0.008522350205232237 0.03145318909815048 0.00020722140713119052 4.929435899803104e-07 1.3986056657194095e-09 4.758571118181874e-06 1.719326444645867e-08 1.090762030256694e-08 1.0571784123801473e-08 1.2521054634306035e-08 1.7856081370675075e-08 3.1819116937593044e-08 7.529566862940092e-08 2.542753471875422e-07 1.263065840395192e-06 8.294336708900245e-06 5.8147280258385195e-05 0.00036179644829006057 0.0017926277860010739 0.006669189823146327 0.01791016741606841 0.03337607994103817 0.04101233320790059 0.031699370830744804 0.018681605005833445 6.628689537789997e-21 4.0915504338064565e-15 1.1239250155085549e-14 2.6752148070826148e-14 6.699531451306615e-14 1.921798040402557e-13 6.736664680004705e-13 3.0680100027651363e-12 1.9181034316776914e-11 1.6955982449116112e-10 2.0780796278819446e-09 3.266316025327527e-08 5.850545256803439e-07 1.0414241857627273e-05 0.0001587964899394118 0.0017607673892740534 0.011792328460934623 0.035220026273010456 0.0001966213614878278 4.3413585718281777e-07 1.2419771379614274e-09 4.75840707719534e-06 6.802136597316996e-08 6.529231494563945e-08 7.524354992806858e-08 9.799789673499556e-08 1.456419306789184e-07 2.539667834125177e-07 5.42843821954282e-07 1.5046231810333052e-06 5.612403991934979e-06 2.6798105853935555e-05 0.00014119756654577942 0.0006980189579259606 0.0028857800411010407 0.00929213053013001 0.02217126298540166 0.037396858740263376 0.042145183855290466 0.0302388545671772 0.0171033416476123 3.6765407689480063e-19 2.2739902271089904e-13 6.013012237954222e-13 1.3555191698602822e-12 3.145527520594194e-12 8.11742880753565e-12 2.457847501380058e-11 9.157608240851211e-11 4.3820041120327794e-10 2.768134898719009e-09 2.298371681498653e-08 2.387993695371684e-07 2.8374677675008663e-06 3.4311781117938944e-05 0.0003692432345661036 0.0030365844708602576 0.015898191923156484 0.038815750477482786 0.00018461806028070312 3.777361077539599e-07 1.097933740657993e-09 4.758285402054814e-06 4.552912267030137e-07 4.833719058076026e-07 5.622489299413988e-07 7.167739745360774e-07 1.0164153831750403e-06 1.640990912303649e-06 3.1203481812382036e-06 7.291585618430928e-06 2.1613268564699577e-05 7.929555563297067e-05 0.00032481125034419437 0.0012972129028806423 0.004511910438233991 0.012632843787752384 0.0268643027957431 0.04111033978596274 0.042571146628740106 0.028397489105573277 0.015442152842943525 1.180923288646984e-17 7.31608375856851e-12 1.8649786062834598e-11 3.995040405589236e-11 8.646887625238874e-11 2.0312764359788562e-10 5.422783208777874e-10 1.7097631222535394e-09 6.585689445146852e-09 3.1737682992429105e-08 1.9180987493053905e-07 1.4094461034930346e-06 1.17725017936259e-05 0.00010141868865544096 0.0007997515334616711 0.00500992491130194 0.020854353193363775 0.042055254794492125 0.0001713876936222636 3.245704564201398e-07 9.668963648654813e-10 4.758185624983093e-06 2.781336214838264e-06 2.9766093887922204e-06 3.402708712268113e-06 4.193102395320242e-06 5.644955778808927e-06 8.462159604481203e-06 1.4506657335983366e-05 2.938936432887939e-05 7.223426878209904e-05 0.0002129461767124224 0.0007006611734610159 0.00230439796343733 0.006816579352861656 0.01670682904904629 0.03181166344463267 0.04432276012856762 0.04228979492559734 0.026278606413083896 0.013757511512310718 2.422240970009689e-16 1.5025826524866746e-10 3.696664993223979e-10 7.544464859277565e-10 1.5307003755479859e-09 3.3027568619784638e-09 7.892138945297406e-09 2.1569065109610395e-08 6.930116352360759e-08 2.6714274760067337e-07 1.2418195856754206e-06 6.824592450259144e-06 4.215023501186805e-05 0.0002700121444918441 0.0016144791247523116 0.007899403338734652 0.02658054329000604 0.04474506973007349 0.00015719611111488 2.753948482734733e-07 8.487392339829987e-10 4.758038649892233e-06 1.3990057408892649e-05 1.4885928494255818e-05 1.6684957738504496e-05 1.9890896069824685e-05 2.5509415980231285e-05 3.575487365516538e-05 5.596479086870418e-05 0.0001004159208166881 0.000211122869053456 0.0005179630011439187 0.0014095903335037507 0.0038933065054895066 0.009916116125490442 0.0214483276964547 0.03678334612589573 0.046872742556428294 0.04135132956658912 0.023990397991323634 0.012100963580770861 3.415576182297145e-15 2.120967082845383e-09 5.04132164824516e-09 9.823073587106809e-09 1.875981363718204e-08 3.7444112495200836e-08 8.103696227748432e-08 1.9549369996800827e-07 5.37978316940869e-07 1.7183732724944745e-06 6.409697693677716e-06 2.7561947367054358e-05 0.00013142236230696965 0.0006501773615904697 0.0030403867171992834 0.011894223413549811 0.03288182010000722 0.04670533533304978 0.000142371469074595 2.307242339786823e-07 7.427720598430817e-10 4.757595560507624e-06 5.8463257394693523e-05 6.173048657238776e-05 6.789181690767598e-05 7.846566397436547e-05 9.62360386526584e-05 0.0001269360444003469 0.00018329845849474893 0.00029606680739831866 0.0005450611531487445 0.001143911892853899 0.0026402490040043874 0.006240205542575042 0.013862500711519694 0.026702805356664902 0.04152641450996629 0.04865599742291391 0.039851990443485974 0.02163831336723011 0.01051508091711814 3.504619683002752e-14 2.1780325107191134e-08 5.0064316702597087e-08 9.332898456836691e-08 1.6839226047128927e-07 3.1280570997970203e-07 6.189905054487388e-07 1.3370692959568812e-06 3.216080773308285e-06 8.745220538139391e-06 2.7053230910175204e-05 9.43842666537785e-05 0.00036023852070462094 0.0014224120689586431 0.005348525623579367 0.01709749670637045 0.039448321481462316 0.047794722330047945 0.00012726050949229454 1.9088009472153427e-07 6.478289899503041e-10 4.756052852405725e-06 0.000206928719502881 0.00021680958272266685 0.00023423474189948149 0.00026304879117446713 0.0003096823507614871 0.0003865832260621023 0.0005194945080076375 0.0007652489643869005 0.0012562630938823308 0.0023050947259760615 0.004609501938665038 0.009485051678177174 0.018615333448101363 0.03223985727802414 0.04580276894616801 0.04964055189117924 0.0379231033770703 0.019317781680313128 0.009032904686814574 2.736655042705697e-13 1.701832296014257e-07 3.7868307986378154e-07 6.767094192941644e-07 1.1573659627953168e-06 2.01158524233603e-06 3.6689480699755646e-06 7.179348373993253e-06 1.5340444861739272e-05 3.627260504107756e-05 9.550955902754168e-05 0.0002783935281169789 0.0008764491257116415 0.002841433287913564 0.008806814244214969 0.02346967014057231 0.04588114489867992 0.0479326639580047 0.00011226340619227923 1.560148079654238e-07 5.625548828257175e-10 4.751169088039061e-06 0.0006309409101998592 0.0006561740165996464 0.0006972538327240134 0.0007626049964906133 0.0008648921933771525 0.0010272347931372086 0.0012944548543756306 0.0017580149070023936 0.0026116900096718318 0.004264924492272321 0.0075234431942567395 0.013690250210922851 0.024031940823908252 0.037785189145128455 0.049425655606288504 0.0498700804362576 0.035715935237108046 0.01710890899332508 0.0076777536923181905 1.685652393786797e-12 1.048742233473221e-06 2.2615314981396363e-06 3.881613393846509e-06 6.3124085548499825e-06 1.0315000685654159e-05 1.746149400325691e-05 3.125776260850051e-05 6.011670125298198e-05 0.0001257383747889417 0.0002877639078364421 0.0007176206497250484 0.0019107569579881046 0.005211120203236142 0.013607978668920735 0.030792660353278017 0.0517430969807697 0.04711418055029052 9.774845764464406e-05 1.2604688247628516e-07 4.853411348986275e-10 4.7375310730315955e-06 0.0016797200551311514 0.001734641662359344 0.001815473768215521 0.001938542209743225 0.002125705549822891 0.0024145347078977832 0.002873451637824102 0.0036325277198404416 0.0049447555054169924 0.0072942251127683195 0.011527593905502712 0.01881154356331011 0.029882315615746755 0.04306501125597982 0.05228686447948566 0.049454832915117826 0.03338598960793213 0.015073573281204539 0.006463624546794107 8.432392090336614e-12 5.248045964584492e-06 1.0979075513783257e-05 1.813444344753344e-05 2.8126466321034157e-05 4.340278234918061e-05 6.86185574586962e-05 0.00011331442268444827 0.00019835109968958828 0.0003721600283994387 0.0007530094627444199 0.001638302029883553 0.003767206971637119 0.00882450288065951 0.01979331947057425 0.03867337355362504 0.05662492805634162 0.04541336550194942 8.405701762052659e-05 1.0076894324799652e-07 4.14614187907436e-10 4.703734582327153e-06 0.003944074256479284 0.004046510042197574 0.004177639951184829 0.004366597032465614 0.004647474473935383 0.005075131508613865 0.005743462901968094 0.0068189407040675975 0.008600431049921156 0.011609893435895241 0.016661657261100832 0.0246923420448519 0.035885003627166394 0.04784911415666279 0.054367707269553374 0.0485533858372549 0.03107900495155333 0.013254888784931265 0.005396112393106342 3.5082559854323136e-11 2.1838920016918894e-05 4.4373946560514266e-05 7.067210782411742e-05 0.00010485564349574784 0.0001534354277404677 0.00022783225303968653 0.0003496654292428104 0.0005623691598722753 0.000957831502467572 0.001737904607368538 0.003352747165346144 0.006776130262447861 0.013879050839241467 0.027199343993970435 0.046592523112600426 0.06021202462336754 0.04297417410830593 7.147118597088276e-05 7.983914969019949e-08 3.4890285620517615e-10 4.6287436417342595e-06 0.00822347165399341 0.008386751637557064 0.008556364365512813 0.008780533693390442 0.009109256510211832 0.009617186677535968 0.010423460098686516 0.01172412984029678 0.013844916419540535 0.017306011453818014 0.022831275355029497 0.031083801464294212 0.04175409244615905 0.05198305377147976 0.055732833716738914 0.04735014661611788 0.02892164078779941 0.011678837887038997 0.0044736585751802525 1.2379231060483937e-10 7.706890752873639e-05 0.0001522808911208443 0.0002343279805342055 0.00033356425412590696 0.00046472032851171887 0.0006515285801648311 0.0009355572538380342 0.001394079739934289 0.0021773742010087064 0.003585589894041113 0.006218537012827967 0.011212950225832819 0.020394803899972166 0.035452304677057636 0.053990140890209794 0.06233364119628593 0.03999112499134495 6.0185379176230365e-05 6.281219790774171e-08 2.870330017929879e-10 4.4787260704314065e-06 0.015273131356190192 0.015494542372965001 0.01565394070117763 0.01582595328290535 0.016080914073379467 0.016515833514673093 0.017274237500330452 0.018574393535630077 0.020750922473351124 0.024292665584680604 0.029802485999871238 0.03767986593410863 0.04723995843414871 0.05539960071335208 0.05651034978783494 0.04603324243482262 0.02701658115766943 0.010357587905457504 0.0036891390730126134 3.764975761506412e-10 0.00023439600345310496 0.00045096937260202493 0.0006719082184772212 0.0009203776426500422 0.001225663343410355 0.001630570882826731 0.002204318918932199 0.003066302384063821 0.004431223112415777 0.00669228193676202 0.01055814761294561 0.017205658728155486 0.028168008525489313 0.04402061268946408 0.060365383047358244 0.06298468082939443 0.03668371479204801 5.030628932619535e-05 4.9193216370145826e-08 2.2833612808023106e-10 4.207151046143435e-06 0.025231401705010696 0.025486219993531914 0.02556340984321269 0.025566941215339353 0.025588805231914258 0.025748178503145255 0.026209757898909312 0.027206781135260913 0.029070138128342943 0.032243088656194255 0.03720780472231359 0.0441504776451101 0.05215150664626997 0.058109029621980564 0.05686357140028676 0.04477643004182409 0.02544265832649682 0.009293703999886294 0.003031495274682571 1.0000602140730903e-09 0.0006225514298236897 0.0011679806236746249 0.0016886229801733172 0.00223262662711048 0.002853177666152945 0.0036195157315270896 0.004633952487850566 0.006059568379962164 0.008168460161402585 0.011419318016704599 0.01655935187731553 0.024665439189547566 0.03678255570027377 0.05231085832323325 0.06536268592320328 0.06231574702525684 0.03327087025910695 4.186539619743938e-05 3.848177896006811e-08 1.7290892624248297e-10 3.7622648754785636e-06 0.036783530449740476 0.03704224462915288 0.037009905693758144 0.03680882517397317 0.036540096329164114 0.036330162135263966 0.03635016947635714 0.0368345402481437 0.038099581138202686 0.04054094086444835 0.044542852638256074 0.05015096359173345 0.05634931418277744 0.06017049520006971 0.056959755793927494 0.04372593802350878 0.02425772459908398 0.008484667093759432 0.002487271413123429 2.345031636876076e-09 0.001459558681930636 0.002674331463769336 0.0037606159434789626 0.004814332999498188 0.005927812795980861 0.0072060132835230955 0.008787586997998609 0.010874446670025682 0.013778106001307456 0.017981124136585157 0.024191320837848907 0.033269968406799515 0.04568073032134868 0.059780138257936676 0.06882262212572746 0.06059809123966828 0.029949811569670404 3.4818539771637676e-05 3.018729418688551e-08 1.2178473678659113e-10 3.106427806437367e-06 0.04644338598049053 0.04671957343048133 0.0467146421239273 0.04653148016085905 0.04623758818497609 0.04592288866757241 0.045723306664452276 0.04584058439993522 0.04655497614208141 0.0482129143990837 0.05113116609043305 0.05529217729191872 0.05970545002175327 0.06164703148867192 0.05693839835408093 0.042991579210814805 0.02350332280649144 0.007927262767462797 0.0020419650474182266 4.895598206805789e-09 0.003046254213595762 0.005460380351445884 0.007486664159883559 0.0093108371372604 0.01109130737840975 0.012983972643405853 0.015169197233122406 0.017881620558533238 0.02145103984242283 0.026343912549327782 0.033167930504488505 0.0425088656938937 0.05426959576101661 0.06602968949782978 0.07078871104423298 0.058174950411164626 0.026882939071192755 2.907529263524191e-05 2.3864401613001132e-08 7.703187662560298e-11 2.249441935089527e-06 0.04880116171698509 0.04920447325130661 0.049613818852708824 0.050048129954363134 0.050472090103084975 0.050863363133378886 0.05124868028765682 0.05173206971306117 0.052510687018797436 0.05386221511254735 0.05605325604700063 0.059065403793725386 0.06203055636364658 0.06254722375284853 0.056878572156311355 0.04263820814291182 0.023208234555933946 0.0076215617395899325 0.0016811152807329644 9.158083529401903e-09 0.005696656212990334 0.010007618907411652 0.013413348316635201 0.01626070304066467 0.018819908346537476 0.021324662528439998 0.024009070682391824 0.02713984109730776 0.03105116343740504 0.03616770293479693 0.04297010412926718 0.051771919649806486 0.062026657365080305 0.07085653218962847 0.07147524598349896 0.05541227978641936 0.02419382698448023 2.451668915641654e-05 1.912606622805446e-08 4.1511924049201426e-11 1.2902414795507327e-06 0.038969722721267946 0.039674678277179735 0.04099058207814451 0.04281076839704496 0.044950101981868315 0.04721153587301459 0.049436980575116474 0.05155098289943694 0.05359116141777931 0.05570875791386521 0.05809566638480834 0.060750135936229535 0.06297922016279434 0.06275461835123054 0.056761017865276105 0.042673661181360054 0.023389027368301517 0.007574018661962705 0.0013910803323216772 1.5419963391886546e-08 0.009587904417648126 0.016539879280360027 0.021729876474883777 0.025768737172926402 0.029104098429394407 0.032087657970765994 0.03502790230415299 0.0382300371784091 0.042029844473018246 0.04680372731213258 0.05291096465505339 0.06044652671550409 0.06857277727107304 0.07425415174103564 0.07120976182996379 0.052659212912954154 0.02197132128346141 2.1012169299302592e-05 1.5647692877117106e-08 1.8057777966010835e-11 4.429368355841322e-07 0.018054577719432474 0.019055143230865858 0.021291651868182448 0.024616137192497604 0.028783312424328376 0.03348526134712039 0.03839688886519734 0.043230109399029125 0.04778878317730857 0.052001075251478776 0.05588984964196319 0.05939955437147265 0.06197688360693836 0.061956308366258143 0.05642235381805309 0.043026554285862884 0.024044258399257914 0.007799410011649385 0.001159536390333698 2.3427571365652836e-08 0.014560151805716154 0.02471523950066801 0.03191640288229412 0.03715761797676201 0.04113719072676622 0.04436876144413431 0.04725722489770496 0.0501556511261532 0.05340313141095348 0.05733320893915043 0.06220942623007976 0.06798398350973298 0.07368931537437527 0.07636689843842577 0.07036652116830076 0.05022337982768566 0.020280169064267994 1.8443486056197704e-05 1.3169955373954745e-08 7.99957799719608e-12 4.1518057445889855e-09 0.0002114794078822691 0.0002450044868721642 0.0019020233753204514 0.004913116948062092 0.009236335232133103 0.014742820651088158 0.021169884217936103 0.028147651707849986 0.03526804245908948 0.04216136927826433 0.04853649736576736 0.05410529193474322 0.05827889234435186 0.0596158577023574 0.05551121661475487 0.04351279984638125 0.025139042363701347 0.00832048382320584 0.0009757295911010382 3.213280369722176e-08 0.019960189771446264 0.033409251986554665 0.04252563073324668 0.04877874477960994 0.05317251068379809 0.05640926473395502 0.05900102056814635 0.061348221700095844 0.06379025142015662 0.0666210842158236 0.07003403994623657 0.07390761729995532 0.07727486557865107 0.07741113748446195 0.0693019276258403 0.04835950682568936 0.01917620203133469 1.6716292228602963e-05 1.1501340100889275e-08 9.14376109745386e-12 1.257393585931748e-07 0.005243493022557035 0.005006850302577931 0.004351990924862479 0.0032931533287820416 0.0029907063818829798 0.0044857873705936345 0.008030463199020704 0.013520549892631432 0.020559591120248702 0.028563199192453568 0.03686639022096789 0.04475972792387823 0.051341288596511964 0.05509549829273142 0.05348880162273233 0.04379821055746835 0.026576078083019233 0.009163302761937572 0.0008305389862981065 3.972175431613796e-08 0.024660804953372407 0.040787170669025825 0.051310203405921934 0.05818518801963994 0.06272018805596002 0.06579660768469268 0.06801922810548311 0.06981913509117044 0.07152039634960394 0.07336893591661817 0.07549737892905474 0.07775165407898786 0.07924597367889673 0.07757278187820979 0.06829247829279078 0.04726611534608529 0.018724657831828452 1.5774657263625197e-05 1.0507914525373565e-08 1.2651225692650804e-11 3.038161876367263e-07 0.01096668584509777 0.010825347762245346 0.010256160217904858 0.009271327412363653 0.007874415964920178 0.006365993365378749 0.005789274845617087 0.0070413324327740605 0.01061568002615449 0.016505055563978334 0.02424225807731955 0.03298598494988532 0.04152226857800919 0.048037691876871506 0.04975727832053918 0.04339108520987544 0.02815829623493172 0.010347044094146106 0.0007164268167605568 4.4085084758523994e-08 0.027354333983435977 0.0447946815467997 0.055829188547959374 0.06278028816473899 0.06717945864220484 0.07003193738268106 0.07199588778626165 0.07350395328037164 0.0748427816062582 0.07619461034480093 0.07762372200324485 0.0789502395815535 0.07939323980309196 0.07688105580917562 0.06746327355247718 0.04707571964369036 0.019017811885158064 1.