# vtk DataFile Version 3.0
vtk output
ASCII
DATASET RECTILINEAR_GRID
DIMENSIONS 41 41 1
X_COORDINATES 41 double
0 1 2 3 4 5 6 7 8 9 10 11 12 13 14 15 16 17 18 19 20 21 22 23 24 25 26 27 28 29 30 31 32 33 34 35 36 37 38 39 40 
Y_COORDINATES 41 double
0 1 2 3 4 5 6 7 8 9 10 11 12 13 14 15 16 17 18 19 20 21 22 23 24 25 26 27 28 29 30 31 32 33 34 35 36 37 38 39 40 
Z_COORDINATES 1 double
0
POINT_DATA 1681
FIELD FieldData 1
Concentracao 1 1681 double
0.0 6.173525748214015e-70 1.1976448613797681e-66 1.474021276180089e-60 1.0004318936992534e-54 3.8805122170617406e-49 8.115451431585066e-44 7.714172179072196e-39 1.7590075039799335e-34 4.032941764018259e-31 1.5394209667207542e-28 3.2261151529374054e-26 2.4854847584905636e-21 2.5016238417807283e-17 1.5196091944536794e-14 2.1685648794154233e-12 8.503542793688411e-11 3.2787014532421074e-09 2.3162185557252349e-10 4.330179534645723e-12 3.850082488699417e-12 8.321065240569961e-11 2.3701287425646124e-15 1.6444020545258544e-15 1.1475649028269564e-15 8.834931241855453e-16 7.065560155677752e-16 5.817782899477193e-16 4.877009266064766e-16 4.1378755226079623e-16 4.3447721562081e-16 8.010523727040245e-15 3.034383946400472e-13 5.962797031842142e-12 6.57147950183052e-11 4.3548543652238853e-10 1.808578502766261e-09 4.799741009684748e-09 8.19868452499689e-09 9.269128078675626e-09 8.201134512887853e-09 2.266702892159219e-69 7.716913358793266e-64 1.4970572491060022e-60 1.8425280692463872e-54 1.2505408675559605e-48 4.850643955812901e-43 1.0144322404932763e-37 9.642722659675457e-33 2.198761100901008e-28 5.041181103642425e-25 1.9242777426946753e-22 4.0326470222327126e-20 3.106858433597963e-15 3.1270322649667004e-11 1.8995130126762935e-08 2.7107082678341586e-06 0.00010629436995653307 0.004098380018812189 0.0002895275510875099 5.412728724448779e-06 4.812606948400678e-06 0.00010401339871777693 2.962663298334508e-09 2.0555042125593726e-09 1.434457258580303e-09 1.10436726812669e-09 8.831957260157345e-10 7.272234435670378e-10 6.096266459590224e-10 5.172348541135476e-10 5.430969456824464e-10 1.0013162669324034e-08 3.7929828907435854e-07 7.453502163228562e-06 8.214355806499229e-05 0.000544357227270495 0.002260724937036329 0.005999681061846945 0.010248363854930637 0.01158641936747261 0.01025142634224433 5.375114575524563e-63 2.5104435307406137e-57 1.8830152013541138e-56 1.5321534749663882e-53 8.887407686378164e-48 3.144139046708531e-42 6.219714840413105e-37 5.707015595703386e-32 1.267253117392734e-27 3.1944666406241238e-24 1.5811908730115e-21 5.700694436514228e-19 4.2272593776945104e-14 2.894889489035342e-10 1.3119860623971547e-07 1.3039881217453617e-05 0.0005068796866338017 0.00832741103843448 0.0002054167845489338 6.595735661423914e-07 3.1948286258293857e-09 4.872211164409851e-06 3.186734143838066e-09 2.4025624573364758e-09 1.9611613988016203e-09 1.6225864686789064e-09 1.3721960598636417e-09 1.1752491299264077e-09 1.0157616108833058e-09 8.835470020007443e-10 1.0650238586797618e-09 2.6290231129211445e-08 9.380775122427375e-07 1.7346642146111854e-05 0.00018116324597351895 0.001143013768642228 0.004530802509999604 0.011479098087462813 0.01867090162398669 0.02001393494034908 0.016970523214553924 6.882704650523861e-57 3.596634646997483e-51 2.0699574374982036e-50 1.6732197759448041e-49 1.303671946736298e-46 3.8286750988088244e-41 6.725172050449263e-36 5.596867394608903e-31 1.1052945119526886e-26 3.050483446613668e-23 2.0685115452040163e-20 8.642682617896245e-18 3.1834614062377376e-13 1.5137773454817057e-09 5.08265501186783e-07 3.934853176545472e-05 0.0011397313617989202 0.01233591430165695 0.00021369081891458393 6.297378424931616e-07 1.730507337558089e-09 4.771994518706359e-06 3.5478969042302434e-09 2.681907797851134e-09 2.2418740766581728e-09 1.9291995657880967e-09 1.6803276048842054e-09 1.4757338548756325e-09 1.3020907772597952e-09 1.1545435699882083e-09 1.7745489984207862e-09 5.8218874692997325e-08 1.8958383747742586e-06 3.226861168213292e-05 0.00031389421300766186 0.0018596951934735466 0.006957277616679333 0.01667531513849265 0.02564158293872959 0.025931344152566923 0.021039590471848307 4.936400103457216e-51 2.7400886945016647e-45 1.3667277494737946e-44 8.760640554852317e-44 1.2430018511525039e-42 3.102993302812864e-39 3.4115677199489816e-34 1.8347624614949126e-29 2.3196179263714277e-25 5.873893070008143e-22 4.709217584387238e-19 2.0843895042125437e-16 1.8005469834415649e-12 5.895553866152014e-09 1.5029435960989127e-06 9.058711791460884e-05 0.002002138480230561 0.01636589444025051 0.00021231611895453632 5.958846781177328e-07 1.6356714151421857e-09 4.770218705424226e-06 4.038438944225714e-09 2.934723041934528e-09 2.4614658959603718e-09 2.1453928645602518e-09 1.8989532792336565e-09 1.6930663814965567e-09 1.514677356385633e-09 1.367654996090117e-09 3.244075298461438e-09 1.294448151225666e-07 3.709885329397199e-06 5.675399789891619e-05 0.0005050968095337441 0.002770965578132938 0.009675401835145219 0.021744591340259224 0.03139448545829434 0.02981676807682108 0.023127255134526153 2.0858416960069375e-45 1.1992673585232406e-39 5.420582255315865e-39 2.970727340917356e-38 3.2277116856947404e-37 3.378727720469387e-35 2.5932216773669055e-31 2.9657959400966967e-27 1.3779893935717547e-23 2.2436765352406105e-20 1.5783499223928212e-17 6.587636372729057e-15 8.921635201020656e-12 1.9392054496106056e-08 3.785748898179583e-06 0.0001800637061601417 0.0031694067541076206 0.020469718854004976 0.00021149649252550897 5.54972353085365e-07 1.5215460919054092e-09 4.769196849922865e-06 4.664030987628878e-09 3.1958663951904395e-09 2.652924068955214e-09 2.3193267336634198e-09 2.0682089424337085e-09 1.8604791134219694e-09 1.679743742155085e-09 1.5679916776168152e-09 7.468629424176785e-09 3.0474698241932317e-07 7.39286472463049e-06 9.914662482054067e-05 0.0007928027821351407 0.00397238324694447 0.012808765635320017 0.02676707233966362 0.036057518084385204 0.03203273391866073 0.023746628534697792 4.96882909976828e-40 2.921107875744769e-34 1.2292627002221486e-33 5.968990558926949e-33 5.204427333302183e-32 2.1033833638817426e-30 1.0795681232782503e-27 1.4679177055071912e-24 1.7850487070293753e-21 1.3612491246973288e-18 6.276198243054679e-16 1.971122450209265e-13 5.2492275938755554e-11 5.802307964745865e-08 8.672027526397644e-06 0.00033006963057497326 0.004721339584820669 0.02471018810383298 0.00020792274645232094 5.081949447196585e-07 1.3926591567179947e-09 4.768383430030687e-06 5.418896990637893e-09 3.4715603423631597e-09 2.8322349407430645e-09 2.4691157533000107e-09 2.20766512118186e-09 1.995736213858209e-09 1.814494525496187e-09 1.934415381904444e-09 2.2465031300144427e-08 7.732517651859732e-07 1.5264501415366406e-05 0.00017506348312635846 0.0012358653800250072 0.0055830068009898376 0.016461365352623138 0.03174754693889143 0.03968115299971116 0.03286619377742314 0.023297319568149896 5.833665715846374e-35 3.480810286177969e-29 1.3750425813744686e-28 5.974315210597018e-28 4.166919291456584e-27 7.535156392482548e-26 5.370551229352984e-24 1.0843632653532006e-21 3.304709560418098e-19 9.989826479738863e-17 2.47221857011114e-14 4.836683220116014e-12 7.741175747389704e-10 1.6976809854063053e-07 1.8866184860456765e-05 0.0005760598356049089 0.0067691330620756225 0.029093252517865868 0.00020218424205183024 4.5778155033252515e-07 1.2606409384088066e-09 4.76777086576676e-06 6.296812827307611e-09 3.764030799843647e-09 3.0053956412732493e-09 2.6038521496540703e-09 2.3277060193301004e-09 2.111317023202571e-09 1.9698844989240634e-09 3.807631182622197e-09 8.388719235044995e-08 2.113371580872178e-06 3.272564511825867e-05 0.00031363203892210344 0.0019238171366126578 0.007745637714941366 0.020704416178268212 0.03661533228855398 0.04226719529355966 0.03255867228297337 0.022094120293202197 2.24539177814152e-30 1.3538967092368104e-24 4.90061367718751e-24 1.8078818033556138e-23 9.039362292098941e-23 7.798966541462314e-22 1.5020676638727974e-20 6.940831966327628e-19 6.046388729406917e-17 7.048632952711986e-15 8.523881589902642e-13 9.341531892278724e-11 8.68439887693192e-09 6.628471759172037e-07 4.0554201221563756e-05 0.0009770203524698381 0.009457876382085286 0.033610064906334 0.00019428524931889624 4.0547626017888503e-07 1.1305595363803981e-09 4.767294785473026e-06 7.2941832911648114e-09 4.077068397414293e-09 3.182125463356034e-09 2.7407581880542036e-09 2.4649594244585073e-09 2.332763385905519e-09 3.034554404715333e-09 1.8804477253114356e-08 3.593769780883761e-07 6.131005356197589e-06 7.230569800424435e-05 0.0005680241597981562 0.002987448723775893 0.010618279268852981 0.025553036227120053 0.04122582055510112 0.04379632527652969 0.031326951621152434 0.0203873371667453 1.1503380523145085e-26 6.989273078657792e-21 2.3184641604104354e-20 7.37545459916044e-20 2.861387491170403e-19 1.5864179963060401e-18 1.4745715916205113e-17 2.585991570091621e-16 8.296127552987766e-15 4.0360324157142974e-13 2.3735694490843876e-11 1.4141683639493662e-09 7.547156853106426e-08 3.240874099023234e-06 9.706628038442435e-05 0.001641554720539935 0.012993669481311252 0.03821255458417092 0.00018428771964733743 3.5275045715621606e-07 1.006320107735531e-09 4.766927129472668e-06 8.6066401307256e-09 4.642934457733782e-09 3.6783185367107662e-09 3.395242067722486e-09 3.6896898193704154e-09 5.746321003980382e-09 1.8760406903924578e-08 1.41590893567564e-07 1.6282111801103689e-06 1.8380772463300326e-05 0.00016227194097260525 0.001031277289341128 0.0046062229320536704 0.01435285249055013 0.03093974658109918 0.04537387630625553 0.04425600072231092 0.029375319670260414 0.018376603737818978 1.0665144909689116e-23 6.5165592724220215e-18 2.019720267253614e-17 5.766164110753003e-17 1.8835447076348764e-16 7.933258965057237e-16 4.800132518283726e-15 4.5842129329780776e-14 7.130037189695047e-13 1.6746930543724508e-11 5.081325613203175e-10 1.6841389424907183e-08 5.27939461588844e-07 1.375621278290657e-05 0.0002586089927160482 0.0029763139088459256 0.017817933982707708 0.042830896980710215 0.00017216015919680773 3.0103929798912764e-07 8.91256833373096e-10 4.766643939274032e-06 1.5006330198689625e-08 1.0861169128154606e-08 1.1469259761178316e-08 1.5130319004196194e-08 2.544960366528195e-08 5.81952495273676e-08 1.959629288037387e-07 1.0141871752943163e-06 7.2163018327904305e-06 5.498335003145313e-05 0.0003628967249127993 0.0018557522478210775 0.00700398628213365 0.019058053301299265 0.03669362466923005 0.04881684281529124 0.043664749739985284 0.026900829897875317 0.016220474664729232 2.8293793685149854e-21 1.7361793924303409e-15 5.090262372416669e-15 1.333880701913633e-14 3.831417953920582e-14 1.330485209113876e-13 6.045263632469397e-13 3.851441963586981e-12 3.5788673585539536e-11 4.739339437001189e-10 8.140086787284487e-09 1.5849255056874575e-07 3.0466060002097206e-06 5.067121622121286e-05 0.0006370186971609543 0.005235044439639741 0.023989802972005356 0.04642351298254706 0.0001581051155767937 2.5477227843778194e-07 7.926154869687752e-10 4.766427819068667e-06 9.186441658013541e-08 9.55188746980823e-08 1.1729198809022384e-07 1.670799692869535e-07 2.828766257208316e-07 5.931807475140986e-07 1.6266211657299777e-06 6.069814761049781e-06 2.9426590361076298e-05 0.00015832140485300467 0.0007920886075242395 0.003268877796028465 0.010423810831419852 0.02474907703122708 0.0425316027745674 0.051310983079969764 0.04209023395424114 0.02409243033872601 0.014042891819460624 2.9452282540285706e-19 1.8132299324798595e-13 5.061293681081765e-13 1.234380613466543e-12 3.195904218891775e-12 9.560576267555162e-12 3.51411694971337e-11 1.671005729297779e-10 1.0635172955571855e-09 9.02926967201e-09 9.677101937192322e-08 1.185393635896392e-06 1.4725757466814099e-05 0.00016394224940820422 0.0014408069852790552 0.008733043258957924 0.031184680939577405 0.04916336271756721 0.00014285112428110135 2.1187225766988282e-07 7.028199000889041e-10 4.766261642482872e-06 8.199639679522049e-07 8.965334463011399e-07 1.091395213335553e-06 1.49675529450243e-06 2.3623607088237376e-06 4.420944940612639e-06 1.017818246814646e-05 2.9625289095353706e-05 0.00010644126633670166 0.0004261383697175255 0.001655592300814509 0.005569925713285527 0.015072572159676088 0.031297180718234445 0.04807528736328651 0.05265525803273857 0.03965694011946228 0.021125644104259902 0.011937854020395733 1.4890719054880618e-17 9.191149256327426e-12 2.453945516046047e-11 5.616244476056975e-11 1.330334913269818e-10 3.518529722939163e-10 1.0924880047526297e-09 4.14278729327061e-09 1.9713422513319722e-08 1.1804212897990444e-07 8.602695905586773e-07 7.101709288483997e-06 6.021842871448627e-05 0.0004697794650578434 0.0029990678913207054 0.013793443889393964 0.03908918059616658 0.05081443021136618 0.0001268241693295677 1.7300636895758392e-07 6.217875157987119e-10 4.766109367611901e-06 5.809621756153911e-06 6.32951060201175e-06 7.523592623093861e-06 9.884238961001405e-06 1.4594562807964784e-05 2.47529706627548e-05 4.946566430255485e-05 0.00011860892078914182 0.00033626905175171293 0.001051785488143084 0.003264905361091639 0.009089431850601348 0.021042800407434042 0.03839863768639133 0.05289794264628837 0.052733147471429924 0.03654200569316899 0.018155836328893518 0.009973198148754872 4.2420781533537405e-16 2.623736027777468e-10 6.718427018143941e-10 1.4508606302171922e-09 3.175298006979903e-09 7.552558095675415e-09 2.036862466008722e-08 6.426595891886499e-08 2.4230414141572195e-07 1.0962899402625706e-06 5.824235011063698e-06 3.4472659176194096e-05 0.0002101252278116132 0.0011989763268128823 0.005756642510333297 0.020619826367657 0.04720056751021647 0.05119889484431692 0.0001105262548357969 1.3866277763436602e-07 5.489976740518567e-10 4.765828480642379e-06 3.161892862435312e-05 3.413708991159815e-05 3.96365048340219e-05 5.005705415059785e-05 6.965830725907275e-05 0.00010855008384553446 0.0001928672362976886 0.000395452743870539 0.0009259850704310387 0.00235752182241189 0.00601602685755934 0.014103147265468028 0.028230712727114745 0.045584789265987774 0.056594011913817154 0.05154165102547677 0.03295946994780905 0.015311017333616174 0.008193801379663426 7.573105018909473e-15 4.691610536678881e-09 1.1543646898926214e-08 2.3615667610286822e-08 4.81012376526608e-08 1.0414590979258609e-07 2.487402924196147e-07 6.723810783054864e-07 2.0917218418231836e-06 7.51839779102299e-06 3.074636507180762e-05 0.00013748864586660657 0.0006310229768518219 0.0027387402526565133 0.010208503994831726 0.029169162534883226 0.05485811283694791 0.050235281433964545 9.445535097680161e-05 1.0903237708672568e-07 4.835648231918372e-10 4.764877171587414e-06 0.00013644357726030516 0.00014594867159260216 0.00016580947141120743 0.00020199882615238503 0.00026659169714738745 0.0003858386971154589 0.0006203600190965268 0.0011170227466265846 0.0022341865776401852 0.004786280534790298 0.010306804625141403 0.020715893474220114 0.03628860747513989 0.05228297524917391 0.05885500208283934 0.049198142636876496 0.02913733775343254 0.012687436042204509 0.006624775615336769 9.167881693615237e-14 5.6869605132461695e-08 1.3465223933574787e-07 2.6178649297821844e-07 4.990620494681871e-07 9.928428449750904e-07 2.1307838606575893e-06 5.0416487925530855e-06 1.3329882192595688e-05 3.9510920993267334e-05 0.00012976005847069528 0.0004576836899066628 0.001646169172502214 0.005626909633980913 0.016757073246223355 0.039054860466896366 0.0613328195934525 0.047962804922402874 7.91056582083651e-05 8.411010167656178e-08 4.2441206266678967e-10 4.761543916341039e-06 0.00048112304266700293 0.00051010358918292 0.0005679604730470588 0.0006695789758640313 0.0008425745286621355 0.0011424184142616745 0.0016849576802407836 0.0027180711963838457 0.004763515748143082 0.008819068271878406 0.016399552930467083 0.028757742418836343 0.044641933483679674 0.0579179149541161 0.05952941163530014 0.045923455897524744 0.02529286537196497 0.010347926770699411 0.005274812402800298 7.99353789836635e-13 4.963623433699863e-07 1.1324267442276998e-06 2.097715877712409e-06 3.7604889506532714e-06 6.925974988516717e-06 1.3511659870732422e-05 2.845206125368344e-05 6.53962445299352e-05 0.0001644883590942958 0.0004484564221665119 0.001292138703196184 0.0037674751938034656 0.010455747720501334 0.025524801457007085 0.04952734254769376 0.06595709250490935 0.04454484391551874 6.490742606286268e-05 6.366531669495032e-08 3.70366268420265e-10 4.751377858095545e-06 0.0014202087040170713 0.001493274185964367 0.0016320440840951484 0.001867219723113059 0.0022509260614075343 0.002880270147074816 0.003940236444970105 0.005784443343937758 0.009061661213428353 0.01481649310270541 0.02427245677517488 0.0377450360793721 0.05258015950823196 0.06202375232756139 0.05864830135782478 0.04200518289208499 0.021610769862292076 0.008324062334383249 0.0041395638048413955 5.2614561764852184e-12 3.2697863843586013e-06 7.196097903638898e-06 1.2731651888256389e-05 2.1550889906374006e-05 3.698229373763172e-05 6.62058301638959e-05 0.00012573734923232847 0.00025576332746136927 0.0005583372505434987 0.0012975349608672188 0.0031423408172583803 0.007641276488394964 0.017676707619711955 0.036191536069318755 0.05956950145326983 0.06825757394491863 0.040248279808580485 5.217627583028847e-05 4.730718940845351e-08 3.2028784749529677e-10 4.7247370723126175e-06 0.003576803198791603 0.0037316118608361312 0.004009364886652114 0.0044639678397022375 0.005177830359102398 0.0062937235521682506 0.008061535353297353 0.01091062366341465 0.015529141275979397 0.02283235937929357 0.033529770206481936 0.04693732144415402 0.05939638161003559 0.06433165013171221 0.05641014544041792 0.03775283267753147 0.01822984701342698 0.006620695572717611 0.003205138518141725 2.7143110106468366e-11 1.6879006215574946e-05 3.587233374874638e-05 6.075209875421944e-05 9.745868598314918e-05 0.00015670680640312646 0.0002595145745610227 0.00044946486618696374 0.0008209847245018545 0.0015839923626244957 0.003205449734817814 0.006679469828076151 0.013873031040532323 0.02736319108710349 0.04794576619532021 0.06809011258448795 0.06805056401904765 0.035404018141189195 4.1118077742089616e-05 3.454339005177495e-08 2.7323665119128484e-10 4.664094745333209e-06 0.007799628327086401 0.008078316789644036 0.008546009119584362 0.00928524419685815 0.010407018387250689 0.012090191065597965 0.014623085423612993 0.018451481734837932 0.024192849939879652 0.03248276170616433 0.04341996735446908 0.05547772612572864 0.06452828917568443 0.06480635263092019 0.05313292948803238 0.03345514732785025 0.015238090933624902 0.005222403303685436 0.002451331776963395 1.1312513998592105e-10 7.038037130754801e-05 0.00014459752410337062 0.0002349041825979364 0.00035834550846369214 0.0005426363984762362 0.0008371601292288729 0.0013348096975556647 0.0022160935259474763 0.0038361657866049304 0.006880176027135375 0.012577788884554407 0.022765966205880412 0.039040148733473744 0.05959611678535476 0.07415934754126757 0.06547073400576642 0.030357353715369968 3.17987169689619e-05 2.4816390733552768e-08 2.2857141584270787e-10 4.542755407859488e-06 0.01489005003263937 0.01531907161823017 0.015983518283408108 0.016995949112166765 0.01848665483159449 0.020649855708939183 0.023772773230696292 0.028252051746374626 0.03454520907109442 0.04293713637182449 0.052967578336495416 0.06256830376614808 0.0676550706449807 0.06362599941993391 0.04918974555637631 0.029349397850318384 0.012676337447540877 0.004100368154451105 0.0018545446191274829 3.9047516053273526e-10 0.0002430151626150357 0.0004831244649669279 0.0007543904878034432 0.0010978862643541813 0.0015729690140122068 0.002275069791440785 0.0033671062541320734 0.005134488063226848 0.008076101710840536 0.013028372551047895 0.02124030855229745 0.034082682479289084 0.051681277116552626 0.0698265975943802 0.07720779960511734 0.06092760961274324 0.025421778895172772 2.4172721697710435e-05 1.7574311850409593e-08 1.8608884403349945e-10 4.3272759326808015e-06 0.025078848983215645 0.02564581646666581 0.02643979180582953 0.027602144304855986 0.02926967263868615 0.03162906252172233 0.03493168768178758 0.03947983421960683 0.045534043872106085 0.05305081868156634 0.0611705569705961 0.06761804586275166 0.06872383742024928 0.06111890251925683 0.04494637533361664 0.025605781030843183 0.010546899986744122 0.003218659860943608 0.001390204770134673 1.1392741756566278e-09 0.0007091909376950316 0.0013655917946462709 0.002053609859656339 0.0028600913598087734 0.0038938630572521254 0.00531058343593622 0.007349687259295819 0.010388342428887289 0.015011462085502664 0.022060052539671877 0.032526088853707204 0.046959180275268186 0.06390362668576777 0.07750227667400386 0.07712446077531622 0.055007208783331284 0.020844184334411264 1.8105095299375156e-05 1.2299048023078108e-08 1.460703493880052e-10 3.985277984139481e-06 0.03742710440603881 0.03807050023045767 0.03886524149722853 0.03997555551457841 0.04153379978523531 0.043703049332944124 0.04667984322047224 0.050659140305076046 0.05572264382534299 0.06158615049520721 0.06718764839926804 0.07031842032159505 0.06790883578004704 0.05768104920648462 0.04071464946893969 0.02232658434247743 0.00882524747042306 0.002539377101434979 0.00103457419175759 2.8576320543006134e-09 0.0017790543923505808 0.0033212308726093824 0.004819425358728836 0.006442544366110978 0.008369449769325197 0.01082161454679927 0.01410001143556355 0.018625555227480644 0.02496742201026628 0.03379731034230734 0.04562425287345727 0.060039886702980966 0.07429528573004131 0.08191709106018968 0.07423332628914223 0.048353559617660274 0.016788707677281262 1.3400788302524345e-05 8.531940878292062e-09 1.0925579115713783e-10 3.498163109681547e-06 0.04951607599291614 0.050146590940216486 0.05082103444451121 0.051714222401925324 0.05294349445983613 0.05463739282648607 0.05693189690632448 0.05992595061166051 0.06356984747553153 0.06744616338466143 0.07045905807546038 0.07063481606379567 0.06552711719008922 0.05369879724100187 0.03672634754905662 0.019555024816020776 0.007471074391847118 0.0020263951272770473 0.0007660064118175091 6.24892124074575e-09 0.003890390208732621 0.007047987058661431 0.00988783927364112 0.012724395511434323 0.015836459262101858 0.01951272375759508 0.024087886394281017 0.029963572946004158 0.03759019925919311 0.04734237160570368 0.059159121701553144 0.07179227450908991 0.08174841260120796 0.0829056226855211 0.06917235416721343 0.041561092998703864 0.013336758286933509 9.838557326751589e-06 5.889152938384158e-09 7.669856954338709e-11 2.8751167524297007e-06 0.057819620069965896 0.05836871340869346 0.05890794943577649 0.0595985695321727 0.06052591150762034 0.06176997053767325 0.06340074246342754 0.0654353438871118 0.06773881422970661 0.0698463088127327 0.07073635025305812 0.06873535731583966 0.061942151502862586 0.04949171957265878 0.03312614425963909 0.017289368274749643 0.006437938218693665 0.001647722066495683 0.0005656454216407589 1.2051089135829262e-08 0.007502030558295155 0.013202076742923901 0.01794093572821426 0.022290395320069475 0.026682577569696497 0.03148593140970175 0.0370496102746432 0.043710378400675855 0.051743219061936296 0.06119290304547081 0.07150010373613562 0.08087580125225971 0.08567923658773399 0.08080178780473588 0.0627265654660233 0.03510273656375106 0.010500326092941097 7.1987739340586165e-06 4.0641602215606445e-09 4.950719606982496e-11 2.162069985359591e-06 0.05891036230291251 0.05937723283037263 0.05992251395118674 0.060661201020907426 0.06162233685343628 0.06281618343993678 0.06423376261320897 0.06581282393857053 0.0673578675306437 0.06840205018029892 0.06804177940738548 0.06489412265403108 0.05748143463244429 0.045279116095540924 0.02997724817619488 0.015497095280905367 0.00567994994512974 0.001376716172888701 0.0004176800881573006 2.0690157659539735e-08 0.012877861438669511 0.02203570251538532 0.029061966442386393 0.03496101385290882 0.040408077912067145 0.04588965310779059 0.051776588608004624 0.05833621540522683 0.06567650796229606 0.07357442542946122 0.08115114754472491 0.08642603899524035 0.0860780705862291 0.07628607837450382 0.05566966563414629 0.029298849937839638 0.008241512283307178 5.27891077438237e-06 2.820010491594095e-09 2.8516847286662515e-11 1.4391965111268384e-06 0.05117191526204577 0.05162400890260852 0.05240347095238625 0.05355316967118116 0.05503068332651486 0.056762784317831494 0.05865091779227222 0.06054840190891328 0.06220248942453907 0.06315141504623716 0.06260180564457923 0.05940678145251675 0.05238391923467554 0.04117001637209813 0.02727300439922885 0.01412646630948474 0.005155960292379924 0.0011924846286199406 0.0003092800071378735 3.186370040504097e-08 0.01982749993561013 0.03302249596004661 0.042347118116716986 0.04946582360561055 0.05541560146260475 0.06086104552708026 0.06622870752865381 0.07174833724119443 0.0774162727930772 0.08285543534875528 0.08706888924449621 0.08816824372267539 0.08340418164146524 0.07018954469569047 0.04865095215391378 0.024322362138848707 0.006493193304439628 3.906093737876337e-06 1.9808680011701055e-09 1.3981561128595268e-11 8.034573782920089e-07 0.03620460949364976 0.036711800888246875 0.037851347716016025 0.039603533977923225 0.041875018801741416 0.044530852260466075 0.04739993963769032 0.05026099809006672 0.052804617457587376 0.05455972844426322 0.05480447484542233 0.052549305947469864 0.046784028333622336 0.037169447310276965 0.024949404384203393 0.01311313588903942 0.004831013649643233 0.0010797746643195936 0.00023032553240815966 4.427912137415591e-08 0.027544206030454932 0.04469693840112266 0.055833771143538366 0.0635033241722299 0.06921516998041877 0.07386794300119427 0.07797923417186944 0.08178204300805918 0.08522675230617205 0.0878900775112103 0.08881140931798437 0.08635530040045937 0.07839229989758202 0.06331708486346502 0.04213894962541899 0.02022660782396398 0.005176868702617938 2.9401115026295776e-06 1.4201172836518514e-09 5.378261090240989e-12 3.3843854805716793e-07 0.018902634999630144 0.019441514490191304 0.020777496870986588 0.02288567862827806 0.025690798210856465 0.029069104531317082 0.03284231638079408 0.03676397447539886 0.04049202630098016 0.043539974222516445 0.04521359020504954 0.04459656004088954 0.040735732742459146 0.033199321524471956 0.022895428834299965 0.012382240642980307 0.004675661206318247 0.0010285267086198556 0.0001730262282543478 5.5770734955536926e-08 0.03467905837354758 0.054887089050034525 0.06690172256207733 0.07428116920980937 0.07905419133378906 0.08236883081317896 0.08484261246352999 0.08673139297165244 0.08798100205473139 0.08818781644368451 0.08650479086518298 0.08159041862361523 0.07184545614141505 0.05632550273349981 0.03641551613887552 0.01698268007062592 0.004215829129528579 2.2721322724163014e-06 1.048893747164912e-09 1.4152070421049293e-12 8.070337681338444e-08 0.005497686022891368 0.005917272380915364 0.0070050307345560555 0.008801729751024952 0.011333402326609869 0.01458431687892068 0.01846975165866803 0.022808863535304796 0.027296433824798454 0.03146360900573864 0.034631904583981965 0.035899508313920546 0.03427659752298801 0.029135526442322045 0.020964222759264902 0.011846030123898777 0.004663138858101723 0.0010332406348710682 0.00013150823844873346 6.387228792700278e-08 0.039698736087876454 0.06134597393626328 0.0730729319892602 0.07938357400831614 0.08276438711348044 0.08456414076907137 0.08546944239875971 0.08574747036813637 0.08534624107872334 0.08390017707159826 0.08068595088849133 0.0746160695525398 0.06447028740942438 0.04966487970368065 0.031601274216438775 0.014515550245032868 0.003543735886383347 1.8219508430158496e-06 8.065137571270561e-10 3.243237134213178e-13 5.913867727055286e-10 4.305793029851712e-05 4.78509247005887e-05 0.0004564434098279897 0.0012974061063679672 0.0027045895783878336 0.0048108824126405735 0.00769619988496424 0.01134003405516182 0.015576198225977665 0.02004423619248893 0.02413907972777246 0.026985308767481234 0.027523719500396997 0.02486599426589061 0.018991151992706255 0.011400926617763624 0.004764738189067327 0.0010920742594068885 0.00010141898005323088 6.66682168882558e-08 0.041415697547291457 0.0625511795912662 0.07290143093727218 0.07762675324225453 0.07949863963273238 0.07996298774674543 0.07971732510324978 0.07901032837350803 0.07777927786994408 0.07568725737589141 0.0721086968637715 0.06613749038079228 0.056778704046205344 0.04356963857466466 0.02769287703070143 0.012732061435899122 0.003109572058809752 1.5330536283815751e-06 6.529400518119207e-10 5.942868456186655e-13 2.5329598611850018e-08 0.001542648354530301 0.0014479552910929398 0.0011890550116676862 0.0007983823234884545 0.000658526083874936 0.0010890408038063519 0.002260208362878791 0.004303857947559967 0.007247783905983911 0.010940088260491022 0.014968564244126934 0.018593743574106727 0.020765343278243798 0.020365930156787514 0.016825832216023778 0.010927815218137741 0.004943519140185755 0.0012054313678659637 7.957852066878169e-05 6.355016870837037e-08 0.039457444513150475 0.05831235783516511 0.06655151020567034 0.06952963440134914 0.07006174062925717 0.06956922177925699 0.06870366965507355 0.06767234794527133 0.06639397261794834 0.06455205851993075 0.06159170002335158 0.056723189974326266 0.04905588714726296 0.03807741712955375 0.024595030427013435 0.011538722082854858 0.002880437891111077 1.3685483849397848e-06 5.624843882229937e-10 1.4134647895540452e-12 7.769662248391171e-08 0.004015500061750231 0.003966671736262115 0.003686635284891052 0.0031892049419161564 0.0025025692591579456 0.0018187070220219835 0.0014985689181158713 0.0018232465584286132 0.003014557511387239 0.005170097874508248 0.00816914433315009 0.011560275699817815 0.014484505595865643 0.015767372548954103 0.014380740649846629 0.010302443499979323 0.005148650515947031 0.0013740336391831543 6.369189891551127e-05 5.5504121222393424e-08 0.03444248867496735 0.049885353821314565 0.05578496567324201 0.057182519330768095 0.05669774955540744 0.055627647821738936 0.05454687955769195 0.05362382526573309 0.05277385096105743 0.051712552741114214 0.04995408249253703 0.04679558951319926 0.04138529979336841 0.03305961048758127 0.022137166800218832 0.010846243236336931 0.0028428595609400597 1.3073093471604612e-06 5.196558283989362e-10 2.622312240536212e-12 1.4126915296954622e-07 0.006397677673200343 0.006474719752415758 0.00628449315043092 0.005842213653572716 0.00516994064341393 0.00429350307