# vtk DataFile Version 3.0
vtk output
ASCII
DATASET RECTILINEAR_GRID
DIMENSIONS 41 41 1
X_COORDINATES 41 double
0 1 2 3 4 5 6 7 8 9 10 11 12 13 14 15 16 17 18 19 20 21 22 23 24 25 26 27 28 29 30 31 32 33 34 35 36 37 38 39 40 
Y_COORDINATES 41 double
0 1 2 3 4 5 6 7 8 9 10 11 12 13 14 15 16 17 18 19 20 21 22 23 24 25 26 27 28 29 30 31 32 33 34 35 36 37 38 39 40 
Z_COORDINATES 1 double
0
POINT_DATA 1681
FIELD FieldData 1
Concentracao 1 1681 double
0.0 1.9632344999182222e-66 1.1717564987375356e-62 1.4093792247759187e-56 9.171268567128898e-51 3.329307856062825e-45 6.2273304791370895e-40 4.7723950264173704e-35 4.826858074778004e-31 5.338496517007051e-28 1.2067713101695062e-25 9.368556010958703e-24 1.05240846276867e-19 3.2648069954406014e-16 9.341236592899755e-14 7.673094380834793e-12 1.90726596033508e-10 4.8094935279569e-09 2.2823782547079492e-10 4.250772292120603e-12 3.8488371983598034e-12 8.32690626784416e-11 2.371792471430698e-15 1.6455563535002844e-15 1.1483704448864424e-15 8.841133005658758e-16 7.070519910243185e-16 5.8218667991184e-16 4.88057042625563e-16 4.2432465018544573e-16 2.0908770318205457e-15 9.938666713697167e-14 2.5363384229170958e-12 3.4166944977867255e-11 2.677890576300281e-10 1.2998740044267367e-09 4.059477223942878e-09 8.339310485373699e-09 1.1514379572476526e-08 1.1416066229455338e-08 9.98342843568815e-09 7.468590446324692e-66 2.4540450881322776e-60 1.4646967704609475e-56 1.7617254403491231e-50 1.1464094880179688e-44 4.161637981204327e-39 7.784169326251841e-34 5.965498383222766e-29 6.033577315832119e-25 6.673125806950035e-22 1.5084653404638902e-19 1.1710703961020705e-17 1.3155116308693003e-13 4.081011958362444e-10 1.1676555082361287e-07 9.591375649137871e-06 0.00023840843576848104 0.006011871607307817 0.00028529751007631913 5.313469592325946e-06 4.811050334234931e-06 0.00010408641161711468 2.964742961080844e-09 2.056947087431709e-09 1.4354641869479053e-09 1.1051424892078204e-09 8.838156958323892e-10 7.277339314301251e-10 6.100717913389964e-10 5.304062370564574e-10 2.6135983406098056e-09 1.2423343330788171e-07 3.1704255009232264e-06 4.27087148771806e-05 0.00033473658402912706 0.0016248437938621069 0.005074350589405821 0.01042414644602761 0.01439298597997523 0.014270094202885402 0.012479295528038623 1.7356257643883364e-59 8.056252520568444e-54 6.372496783357374e-53 1.5283873890058448e-49 8.507306326436346e-44 2.7837109870805526e-38 4.8417247836820994e-33 3.4823367400090762e-28 3.339541304890916e-24 3.932635846195005e-21 1.0795273970083894e-18 1.2389195347347523e-16 1.7902907188991401e-12 3.767788378206049e-09 8.034443129506658e-07 4.58842462634245e-05 0.0011212615223988504 0.012122760529450593 0.0001989864080376871 5.348999975798989e-07 2.6332000997807173e-09 4.864151980214077e-06 3.188443111202127e-09 2.4040870125376233e-09 1.962449961604476e-09 1.623672187864789e-09 1.3731240647474365e-09 1.1760496618567022e-09 1.0165229134637457e-09 9.255628474322114e-10 7.004903144092205e-09 3.2527619600768797e-07 7.713332525196476e-06 9.750936204876763e-05 0.00072212449224506 0.0033258980123799077 0.00987212202547651 0.019255474871672146 0.025138613098745967 0.023479746558420934 0.01970077932760848 2.16437434817689e-53 1.128205113832338e-47 6.838254686550573e-47 6.3141676224290975e-46 1.4113097175317581e-42 3.7501840474659682e-37 5.496154428139699e-32 3.254917599943165e-27 2.6409172659132437e-23 3.248380917420211e-20 1.121781804441518e-17 1.861989553317313e-15 1.3465114289530947e-11 1.965483319683488e-08 3.1005976300943693e-06 0.00013755315019047792 0.0024965113507078793 0.01774839625989086 0.00020359900092369127 4.95387077311069e-07 1.2964677798565125e-09 4.775127584710754e-06 3.5498430053080245e-09 2.6835352066637945e-09 2.2432946379838474e-09 1.930451086917913e-09 1.6814345935495294e-09 1.4767167906720644e-09 1.303226807651295e-09 1.2796547759645723e-09 1.6637774699164186e-08 7.134032020929018e-07 1.5269439462651432e-05 0.00017724202430979813 0.0012193383919029339 0.005256980799763221 0.014670621954469547 0.026936939004043852 0.033035975418897065 0.028944266699941698 0.023277096701000963 1.4873432206442418e-47 8.246431069793957e-42 4.320456524976954e-41 3.113096463943765e-40 6.683392189027624e-39 4.4205359403329016e-35 3.2840922242032315e-30 8.940182592745948e-26 4.441921378441509e-22 4.857226258627613e-19 1.859852792180166e-16 3.809285965339082e-14 7.595384539886406e-11 7.636560912142034e-08 9.129456425310495e-06 0.00031443995162842007 0.004339408242469899 0.0232120009078228 0.0001986865061474432 4.5480270246489306e-07 1.2049490521238962e-09 4.773558299084827e-06 4.040728493597705e-09 2.936473883092896e-09 2.4629911687616097e-09 2.1467556041439337e-09 1.900180519142398e-09 1.6941757611554414e-09 1.517060404784308e-09 1.7906788570105026e-09 4.204055832275925e-08 1.5565130717189183e-06 2.9108007249715967e-05 0.0003031235759829216 0.0019036440597557328 0.0075790292560686855 0.019674482108552882 0.033725031550034035 0.03861688184005166 0.03161898121554928 0.024364423570539757 5.868982066905797e-42 3.372335014731588e-36 1.593083704003849e-35 9.6566575202215e-35 1.4317176797454697e-33 3.8057606474834065e-31 2.0066102908770013e-27 9.42732884671439e-24 1.8055970958519075e-20 1.3001924751280515e-17 4.3056542339448395e-15 8.558150010280081e-13 3.747349097543598e-10 2.505468325640231e-07 2.2885452875340617e-05 0.0006200213872434901 0.006785186338465579 0.02855728987055394 0.0001940300402926961 4.1054714913286274e-07 1.1051770123883232e-09 4.772656453280728e-06 4.6667743887016415e-09 3.1977671424051694e-09 2.6545472665016333e-09 2.320778788541412e-09 2.069527008307473e-09 1.8617159487109379e-09 1.6917846429506574e-09 3.3124495172248558e-09 1.1928561605003853e-07 3.55527124068897e-06 5.611028048143341e-05 0.0005118621490832837 0.002883850084902741 0.01046418305136777 0.025014829127934665 0.039723212412803195 0.042233361136716226 0.03221757868386327 0.023797787218829924 1.2448926790890243e-36 7.315998846533948e-31 3.19463087148705e-30 1.6764546977701753e-29 1.8031114526666674e-28 1.0638614957811606e-26 3.88948570992373e-24 2.5413812697723234e-21 1.4371371372145395e-18 5.194631726141038e-16 1.160965444521793e-13 1.772414849811912e-11 2.1833810944590094e-09 7.473930893593895e-07 5.213220597592112e-05 0.0011259201674811835 0.009962724438654947 0.03381694571536829 0.000186511136782932 3.6356763271494706e-07 1.0003297729724361e-09 4.771941373395617e-06 5.422210942266929e-09 3.4736444507240984e-09 2.833971859621086e-09 2.4706821203963915e-09 2.2092180365371175e-09 1.999405247698807e-09 1.9487921396955974e-09 1.0903271451814363e-08 3.8448514460280517e-07 8.6341889012969e-06 0.00011108364228029958 0.0008673762320626977 0.004312504970114612 0.014089774802587378 0.030735333213344016 0.04490987189593624 0.044126004218402834 0.0312915421604837 0.02218376683992487 1.164046690776227e-31 6.944167383548482e-26 2.8160438429437002e-25 1.2762775942421602e-24 9.348931005338889e-24 1.6157801701081892e-22 8.290541436791795e-21 9.647246818410198e-19 1.5648227945786258e-16 2.4524538786036155e-14 3.1129264558375486e-12 3.0837079014576457e-10 2.4347337835205308e-08 2.174761538480431e-06 0.00011267284473966421 0.0019433800000843232 0.014040623042347893 0.03892659320683937 0.00017673977980170067 3.157238682910483e-07 8.977896218759249e-10 4.771405710290147e-06 6.302885006247439e-09 3.768819418477591e-09 3.0109908558541074e-09 2.613021061416226e-09 2.352286740656063e-09 2.2514600077425656e-09 4.078179894215642e-09 5.947516443011358e-08 1.3872306102908708e-06 2.2219603010542824e-05 0.00022586742462575612 0.001478697806111718 0.00639499830851757 0.018617268373196015 0.0367745378394528 0.04916752138301341 0.04447966570560209 0.02928290098563294 0.019963176826074354 2.050155577823509e-27 1.236149352715663e-21 4.456707726689561e-21 1.628425333927919e-20 7.920185996871415e-20 6.291517677896257e-19 9.838524772361725e-18 3.1331591922256873e-16 1.6685785194350006e-14 1.1126615658612716e-12 7.409192132036417e-11 4.3519739477819415e-09 2.1156581353578292e-07 8.148078420423982e-06 0.00024021787084378096 0.0032525261750219916 0.019212406465071996 0.04377416089594831 0.00016479394001791214 2.684637552265878e-07 8.004993060241955e-10 4.770992112947211e-06 7.466077287782331e-09 4.2753433041770425e-09 3.4599857857661962e-09 3.2333661055583596e-09 3.6599292043288214e-09 6.8724442298187274e-09 3.4763810044831136e-08 3.95880835116077e-07 5.383309481992813e-06 5.951492591305179e-05 0.00046714299805133774 0.0025235122132519624 0.00938637767430481 0.024151272204111954 0.04294465649930471 0.05231848640064752 0.04346684013219036 0.026556793558886786 0.01745473772617905 4.441229374399438e-24 2.6984114628494107e-18 8.868015867514355e-18 2.7757715682510775e-17 1.0437851958108422e-16 5.421900382148045e-16 4.402855278103743e-15 6.038699852658973e-14 1.3443938462694367e-12 4.1378998685402754e-11 1.4481998958665028e-09 4.930039340303789e-08 1.4609080478994462e-06 3.417623276978666e-05 0.0005578647975414715 0.005371707382351777 0.02570238771988725 0.04815940813834133 0.00015084401595255663 2.2306495569777353e-07 7.105634042711821e-10 4.77067534459521e-06 1.4235605161162007e-08 1.1104655614669661e-08 1.2360282620273107e-08 1.7526104883968667e-08 3.304979668286458e-08 9.012932405050869e-08 3.876153479362228e-07 2.580476249005482e-06 2.1148009117240205e-05 0.00016113429364514076 0.0009668485421785242 0.004270170970347712 0.013563577069240853 0.030681839870159044 0.04892540431914307 0.05417293414752099 0.04127851485156737 0.023418727315918094 0.014885090250802537 2.0471166331723627e-21 1.2508136448656673e-15 3.829240103892531e-15 1.072314992121611e-14 3.391491487870434e-14 1.3492064200869417e-13 7.365206268169197e-13 5.890800146265832e-12 6.971458116760343e-11 1.133848583305694e-09 2.2112788594948768e-08 4.4696614105217174e-07 8.249731051280108e-06 0.0001240545077253735 0.0013454562734965592 0.009173107784644623 0.03385175270898063 0.05177551799002209 0.00013501138670473856 1.8083959950416131e-07 6.296964969972996e-10 4.770433452339399e-06 1.1620523648633415e-07 1.2520163683605618e-07 1.5920982767643428e-07 2.3916798925430894e-07 4.3890293702209687e-07 1.0351666217425283e-06 3.323276659932505e-06 1.465194886873788e-05 7.892351477709628e-05 0.0004259398866716913 0.0019631935452182007 0.007079994143945726 0.019159068090048005 0.03802191429876811 0.05428709941686384 0.054582155363423916 0.038140336326704154 0.020122590668560154 0.012410409509193867 3.0832840815045897e-19 1.8919698311135913e-13 5.463583766414158e-13 1.4003028857474016e-12 3.8878293641274375e-12 1.278943295031362e-11 5.321154934371756e-11 2.942875403642464e-10 2.206318798033149e-09 2.1705207682300886e-08 2.5668220415805253e-07 3.2422804661489947e-06 3.8779163575881047e-05 0.00039142191091759665 0.002966883522097775 0.014903390493527256 0.042831441163276786 0.053231977290876496 0.00011850968340820278 1.4560502965668697e-07 5.614512098251208e-10 4.770245646770096e-06 1.2193531663809616e-06 1.3514137973453146e-06 1.68626399777185e-06 2.4093949497609163e-06 4.044332628481076e-06 8.250651010618381e-06 2.119826895705314e-05 6.908109893111943e-05 0.00026673530155672305 0.0010645981620865407 0.0038342309968802104 0.01136276990865625 0.02625903642324784 0.045765529973976364 0.058546900030010555 0.05348982028647851 0.03431287173751498 0.01687245961686318 0.010132113867046167 2.0053436530016752e-17 1.2345779753374042e-11 3.385415624907716e-11 8.053401784377961e-11 2.0114580854305987e-10 5.70508300496527e-10 1.934956650518717e-09 8.149746967940393e-09 4.34114954635345e-08 2.8802410746170737e-07 2.2487760809961764e-06 1.8879166686777987e-05 0.0001534633379905333 0.0010846494908929125 0.005971841728553038 0.022763188223329685 0.051903946611559455 0.05313774073978035 0.00010180006416543084 1.1471089060382197e-07 4.997582873277266e-10 4.770058697122039e-06 9.388814497078597e-06 1.0320235785301014e-05 1.251881927471046e-05 1.7011923109991628e-05 2.6388100420184174e-05 4.7806767872908246e-05 0.00010342194814630748 0.0002679452964648648 0.0007952482114949587 0.0024572039476056223 0.007084785249816806 0.017463689517069603 0.034687460500120906 0.053298875155851744 0.061257287771997834 0.0509668707699835 0.030077136609790413 0.013822273766700173 0.00810904638329385 6.787379939463762e-16 4.189389442962533e-10 1.0961044472629102e-09 2.4408382145768707e-09 5.5672695950155166e-09 1.3962359975667184e-08 4.01841614882168e-08 1.3666426758693245e-07 5.573978955015555e-07 2.7033682040792413e-06 1.4997995775980406e-05 8.888611906822536e-05 0.0005156162228314275 0.002658706127845644 0.011005260174192866 0.032684342724698875 0.060226050739625454 0.05145057901958795 8.545798564101374e-05 8.834498377119273e-08 4.4392603286760087e-10 4.769642714453216e-06 5.333593133748277e-05 5.799353085610621e-05 6.85137387194173e-05 8.901894391538584e-05 0.00012896387397116291 0.00021160957318459975 0.000398667985095418 0.0008620837940659944 0.0020722945214924713 0.005165971204777216 0.012242451523443753 0.02549397593941914 0.043934236523993524 0.05988232117188549 0.062104795410910504 0.0472191408889602 0.02571081449038757 0.01107695149148041 0.006367451178559875 1.3616034799750881e-14 8.421422000879121e-09 2.1084195407479726e-08 4.42061508524085e-08 9.301536231185377e-08 2.0977888050038747e-07 5.260113624051998e-07 1.5010938117975552e-06 4.931131101992325e-06 1.854067198869946e-05 7.755261079127142e-05 0.0003422953250371818 0.001483087497765535 0.005796899819970577 0.018616136730966494 0.04413640837031853 0.06688317006374 0.04827393264208708 7.003913349642527e-05 6.648880067046384e-08 3.930746922507929e-10 4.7681026694384806e-06 0.00023363088718248988 0.0002513948087774436 0.00028990968897643366 0.000361838118323804 0.0004937223725852056 0.0007444079009812394 0.001250501808991225 0.0023345960554870667 0.004725161244384334 0.009838176708918721 0.01965519532624906 0.03516832488832475 0.053175992611186496 0.06479385568752427 0.060986903260633836 0.042563494324395636 0.02146139355666414 0.008695358268961777 0.004909242204983081 1.7780550762857266e-13 1.1015030474756614e-07 2.6444086384821674e-07 5.242545817031887e-07 1.0253217515251403e-06 2.104959782745375e-06 4.685232540074078e-06 1.1526425024248163e-05 3.161680437917372e-05 9.624734261460084e-05 0.00031801476859102804 0.0010934833623681079 0.0036848558501601488 0.011303466239723205 0.02898087213393152 0.05609017038758661 0.0710694267088597 0.04386057533647106 5.599372180118263e-05 4.888128806948238e-08 3.462234367724183e-10 4.762659222305305e-06 0.0008187758050214883 0.0008724771623973803 0.0009841402384646034 0.001184522076816071 0.001532597313364044 0.0021472423759949996 0.0032729675198659935 0.0054072040163320205 0.009488716761439194 0.016974251237557886 0.029253408094544308 0.045738690455976644 0.06141602868919027 0.0674910819422508 0.05804064616046357 0.037378659078304684 0.017524467383945988 0.006696874769834808 0.0037191590727652995 1.6212027736406116e-12 1.0056356208066803e-06 2.3187274414783253e-06 4.361447744798258e-06 7.975609361726028e-06 1.5046431347001023e-05 3.015332619327384e-05 6.52521258746746e-05 0.00015351528512214644 0.0003910108629215092 0.0010586604449456481 0.0029431884767052723 0.00798647400617248 0.01982582091330358 0.041641526916123425 0.06715801626315335 0.07226924244243535 0.03858015558594043 4.365199411987654e-05 3.511237444646079e-08 3.0242809133905324e-10 4.7463883000124415e-06 0.0023627508870805555 0.002494875598127315 0.002757660154796057 0.0032118529020096803 0.003963184025189034 0.005206653346101139 0.007300465010468367 0.010876725003269715 0.016929482284653716 0.026629443212863917 0.04039868859864442 0.05608862763031744 0.06770539287414017 0.06773422000564787 0.053612738256569266 0.03204676996608306 0.014031822478136778 0.005069832163224867 0.002770912062485489 1.0893633206145227e-11 6.764326113222262e-06 1.4999946877054954e-05 2.6844077826710702e-05 4.612459770662918e-05 8.057812670878249e-05 0.00014704917037278934 0.0002843620879046383 0.000585866640784611 0.0012808959186019829 0.0029256180472592426 0.006779283171283068 0.015255817039250594 0.03147797868183448 0.055419978370654405 0.07588835119346364 0.07037946193690545 0.03286228431126441 3.319005734376236e-05 2.4655019715947446e-08 2.6089200804760506e-10 4.705271652042047e-06 0.0057414448900866295 0.006011229874476914 0.006522198130293766 0.0073738141029595465 0.008721639113158881 0.010828101052161511 0.014124313791178511 0.019267402611895922 0.02709091467413825 0.038197010528850155 0.05192290903355419 0.06497722589519453 0.07136613144026939 0.06562696020288633 0.04818302010983564 0.026899834434044353 0.01105017414345534 0.003781255809936441 0.0020322366613019917 5.62845411818186e-11 3.497798541759655e-05 7.468030773954652e-05 0.00012747910875051486 0.0002066982400349032 0.0003365649174285652 0.0005645810193821457 0.0009882184449098725 0.0018129403140624135 0.0034726434368752453 0.0068500369582985225 0.013564937482177759 0.02595154263419766 0.045547168545810854 0.06859819307284706 0.0811234448043815 0.06572747390307664 0.027129155018897767 2.4624413201936324e-05 1.6937902667574245e-08 2.21089455802618e-10 4.6161064929240875e-06 0.011955127923901118 0.0124184452081443 0.013248372914146198 0.014583492854198904 0.016613069338731738 0.01962765414898723 0.024051329894446968 0.03042667931849967 0.03924230455100749 0.050414275989693474 0.06237751570263284 0.07134173012804035 0.07213286097784997 0.06156692997652721 0.04226831221074444 0.022185556969172085 0.008590165439537119 0.0027859492538656765 0.0014689624379964506 2.3136316137500093e-10 0.00014387133670832198 0.0002960539917675176 0.00048313094125316603 0.0007420378223143922 0.0011326455513510046 0.0017605388216023086 0.0028193739988844136 0.004669469741945322 0.00796837298930029 0.013838473847835323 0.02391062444952053 0.03971336178011862 0.06048153764073657 0.07933566442730397 0.08228188678960593 0.058981516928470375 0.02173717983899819 1.7849667774099825e-05 1.1401769415817317e-08 1.8288012805029717e-10 4.447799285451321e-06 0.021618368785831014 0.022293038844439644 0.02342500429369622 0.025182726460794492 0.02775793093084373 0.03141419207280544 0.03648343873928433 0.043287905949312984 0.051898001312855185 0.06162881526324895 0.07039458722520334 0.07453915625571282 0.07016967948445893 0.05613262061536288 0.036336649920949905 0.01805479118081453 0.0066205894056816815 0.0020342763829783784 0.0010479534324750442 7.779099221191684e-10 0.0004839666866812562 0.000960721491619866 0.0015019809538105047 0.002192783847523281 0.0031537951052585085 0.004574400112674863 0.006764630839101108 0.0102325408961925 0.015776506260993455 0.024513659951098034 0.03760676188180936 0.055204905087256305 0.0742271483815647 0.08615952116971619 0.07946641814256968 0.05098940664514908 0.016938967108818065 1.2662630074961047e-05 7.53346639069999e-09 1.4655076150641273e-10 4.16808410557349e-06 0.03428521964947469 0.035120840555811564 0.0364166977330427 0.03835605960596336 0.04110209238251393 0.04484709349811726 0.049780474879127914 0.055976243003817684 0.06314250605512209 0.07021858150634294 0.07501526898015266 0.07444582289053091 0.06597458903583513 0.04995027447602483 0.030750088007996355 0.0145689783917996 0.0050845047989972695 0.0014778803810965228 0.0007390768011431001 2.188876888032147e-09 0.0013622479344961652 0.002610708871815693 0.003917862848546862 0.00545456105916088 0.007426898774212767 0.010116075240635266 0.013926928862760415 0.019436216377713613 0.027401947146966914 0.03862033258456506 0.05339653613062875 0.07035380872222939 0.08479005141230755 0.08833342649866038 0.07337360653579597 0.04260211241055639 0.01287240593558332 8.812060871422669e-06 4.897905784827715e-09 1.127857774841627e-10 3.7552534505592545e-06 0.04800124825465882 0.048880954104805495 0.05011787870380978 0.05189714991422668 0.054336056914573994 0.05754000761394053 0.061557428369721626 0.06626141056066571 0.07113503589933079 0.07499614881864877 0.07586590132102403 0.07140261015725029 0.06022272162146774 0.04358280065797292 0.025742752523030675 0.011719527765807194 0.00391333799595954 0.0010732741457175877 0.0005162945005703967 5.252682615593469e-09 0.003269733857126506 0.006053856804416387 0.008736631987704779 0.011635112909014454 0.015063445503204414 0.019380081976919795 0.025022173739407287 0.03250744567311418 0.04235291386024565 0.054796149690720435 0.0691720990076503 0.08291625736725998 0.0907816698843419 0.0859707469931524 0.06506283627095731 0.03453184509162716 0.00957150613980256 6.034400147449538e-06 3.1432454940964336e-09 8.251759169406862e-11 3.21099247508722e-06 0.059516310795493 0.06030000194949485 0.06127951182857975 0.06262910405555286 0.06441863762379317 0.06667683754175789 0.06934666523771944 0.07218173107530121 0.07458521652920862 0.07544513149154602 0.07314645237076996 0.06605494274559667 0.05360685741100443 0.03746051743983552 0.02142825726300385 0.009451808307349227 0.003037835825671945 0.000783640034983681 0.0003580387962352881 1.092073656568976e-08 0.0067988099951667965 0.01216840566146616 0.016916806965993986 0.021613449901008188 0.026716607383102386 0.03264342314269751 0.03979497587733629 0.04852041549175451 0.0589751034691002 0.07079479349563662 0.0825464264147233 0.09111484515371128 0.0917293507187382 0.0798901137902528 0.05568297940273499 0.027275375693444442 0.006992440975441264 4.081604496028559e-06 1.998589403682167e-09 5.6693318821322e-11 2.56820696824474e-06 0.06530434178508795 0.06589731987323928 0.06656249066127806 0.06744818464425055 0.06857959610423212 0.06992495929137417 0.07136012818573223 0.07258888383117344 0.07303210444091209 0.07174122068877797 0.06747850403731605 0.05916288584438444 0.04671986224411985 0.03185890498790702 0.017824198736191097 0.007686981882200194 0.00239482652015431 0.0005792829564137208 0.00024710120103100825 1.9931713651995816e-08 0.012408885400613264 0.021479859678763067 0.028813868589316956 0.03541545335670574 0.04196354732439651 0.04894462901476117 0.05669756172216922 0.0653714384477023 0.07477650468500588 0.08410139046887485 0.0915391769304156 0.09407684058332676 0.08806687322463304 0.07131049204632525 0.04624527992067628 0.021100366709231634 0.005043492527704687 2.7393545099482797e-06 1.264772206178497e-09 3.6010733988358904e-11 1.8886052308195352e-06 0.06304856973893702 0.06344927957220169 0.06392419625960602 0.0645766729391209 0.06538549356120783 0.06626666878679635 0.0670503793002373 0.0674255478887893 0.06686832506921644 0.06460232895438578 0.059697585432414234 0.051442964374784704 0.039993566356228624 0.026910589729330622 0.014882522622204504 0.006338957824945514 0.0019307542220666774 0.00043720369125233857 0.00017019129783260885 3.2286397463022063e-08 0.020099002918327002 0.033663384852227925 0.043638326464165184 0.05173674894380051 0.058986772750322485 0.06600222761595345 0.07309554612479194 0.08027231425273795 0.08712752497292366 0.09265724788353218 0.09508064257294205 0.09193177879626259 0.08087186694681378 0.061520470888237415 0.03749136308855367 0.016080321412452317 0.0036125402605554683 1.8345676794634015e-06 8.010929061822307e-10 2.0701689627953e-11 1.2486970096783504e-06 0.05286566793585405 0.05315532103202205 0.05366035211066531 0.05442546677093525 0.05538237047200464 0.05640065201024227 0.05727419920818458 0.057685799235901676 0.057163220785312156 0.05506438462714968 0.05066911453063101 0.043474829024214554 0.03368966028496779 0.02263524471189535 0.012517156883680153 0.0053251386306337415 0.0016025323466910648 0.0003402128574296102 0.00011733475543104298 4.684340661882583e-08 0.029156361867133947 0.047265092141608685 0.05929080802677106 0.06797433578543668 0.07484550066731412 0.08072892565755671 0.08598137092022395 0.09056535091060668 0.0940207730288652 0.09538297312342868 0.09316200383183326 0.08560039281474272 0.07149655781962366 0.05162413051449412 0.029859691162925438 0.012151668290518315 0.002587316961578892 1.2341072068500302e-06 5.111873255145646e-10 1.043675882537284e-11 7.184691225394227e-07 0.037544293434570185 0.037820313203580126 0.038509686896155894 0.03960415368144558 0.04100644154389123 0.04255940279265082 0.044038194907231175 0.0451261877075649 0.045389047425596823 0.0442713561899837 0.041171985933820404 0.03567368460966746 0.027926124361230074 0.01897639433530955 0.01062506094554748 0.004571922757929764 0.0013768978437233084 0.00027588875493417037 8.123355236595091e-05 6.133835067328033e-08 0.038169072064273966 0.05990196361320437 0.07280105414009658 0.08089435985842447 0.08632011397750511 0.09016843699820686 0.09289429047985309 0.09449631192224356 0.09457191981916312 0.09232613386762786 0.08664772120293292 0.07641990166126068 0.06123431467295445 0.042409275137925244 0.02352356814888015 0.00917324822319911 0.001867825241784809 8.405126138641071e-07 3.3121888807993134e-10 4.383168539315497e-12 3.407592593448012e-07 0.02152281800555696 0.02182270268420382 0.02265820844486504 0.024001938922198558 0.025767377776291848 0.027814099970911624 0.029936558679540537 0.03184360344438716 0.03314034549755346 0.03332670777293541 0.031856707631059925 0.02831463596516998 0.022721928776039256 0.015834873001188868 0.009100135151742156 0.004016014806777178 0.0012288186164269757 0.0002355740024137201 5.666528785835248e-05 7.295248880377073e-08 0.045381826143143685 0.06895903519926871 0.08127021181748381 0.08769793752002848 0.09097787807038628 0.09244475681868257 0.09264740012221355 0.09164020507807923 0.08911227314657322 0.08445822988803069 0.07689768535999798 0.06577082947149265 0.05110600493158311 0.03432709869161831 0.018463581780060034 0.006974670404285235 0.0013719825021673764 5.850134091691796e-07 2.1995657420618356e-10 1.3952744300549921e-12 1.1970233028899438e-07 0.00899436740285953 0.009270841564309266 0.010039508125457763 0.011296593126411819 0.01301068629711639 0.015108283260349638 0.017453285112867534 0.019823166685784044 0.021887675616622415 0.02320349913008241 0.02325431677912157 0.021583902895272417 0.018047618239440087 0.01309749599496518 0.007841113293511587 0.0036033710897144357 0.0011395645612363565 0.00021348916520504518 3.996276737235074e-05 7.924066798467019e-08 0.04927451802099175 0.07250068883149526 0.08290178173398262 0.08700373224179707 0.08798391039151594 0.08731865183888704 0.08558997249007037 0.08287446036211957 0.07892557836629982 0.07327820649073148 0.0653745435545119 0.05481232569210538 0.041777951382766264 0.02754415952613023 0.014545120402072087 0.00538908951255427 0.001036512588913823 4.205876155911824e-07 1.5131871109614213e-10 2.765012129389693e-13 2.3301686266772304e-08 0.002059085715851768 0.0022311839566648427 0.00270917899576319 0.0035304662614478446 0.004733378984222446 0.006334478723344219 0.008300732435479161 0.010517993317547374 0.012761546298572892 0.014677147764892255 0.015797295408909572 0.015632251329141752 0.013871919409461838 0.010661174740981685 0.006756783262566889 0.003286798360800427 0.0010946396189353133 0.00020600211874160238 2.8591308207421422e-05 7.900504560938256e-08 0.04910603421416507 0.06997015860008636 0.07763506206378894 0.079297677652106 0.07831649686390467 0.07616412163920065 0.07337548692050487 0.06999828094911177 0.06580481111470034 0.06040479592683286 0.05335693414126084 0.044360919018707895 0.033582720667256906 0.022025334801445685 0.011581553301083835 0.004271166569499705 0.0008152011894531348 3.161266214169025e-07 1.0912702024392783e-10 3.5786036408164696e-14 1.621515218183296e-10 1.4530665935219376e-05 1.4433445167043984e-05 0.00014803027375771173 0.00043916355301559405 0.000958658543487837 0.0017843879413610758 0.0029735304605680766 0.004528329222646312 0.006357548701329639 0.008240362799730134 0.009811714084090593 0.01060499516769551 0.010196153999976212 0.008453486726164248 0.005771186802837274 0.003023999124326624 0.0010817718498561044 0.0002110158672615377 2.0821009829585316e-05 7.26996490922884e-08 0.04516435666414161 0.06234636642046302 0.067100215371878 0.06668278756857599 0.06435110381143057 0.061447191993661915 0.05840175843069046 0.055203919911646054 0.05161638604008271 0.047280316833663474 0.04180151449732504 0.034888691359824385 0.026595002767681827 0.01761521502645098 0.009376598013722223 0.0035035944774674766 0.0006761015474751493 2.5160220830820513e-07 8.35542545475857e-11 1.1997449865563303e-13 8.503149105446107e-09 0.0006510823625796383 0.0006005183708851692 0.0004713085446969705 0.0002900375724730241 0.00021486034437110172 0.00035144650271920486 0.0007631314032730737 0.0015122334090278897 0.0026176614747103707 0.0040051454907410085 0.005462495641388734 0.00662863600548325 0.0070649050751678275 0.006447053262832764 0.004830179628985606 0.002776883856992341 0.001088994906712748 0.00022740459344195975 1.5482481462113672e-05 6.219596057019545e-08 0.038618163348400104 0.051717016732819414 0.05396426382414188 0.05209582343053525 0.049047947390295735 0.045965573017197565 0.043166283462274836 0.04058743805845302 0.037985799293274954 0.03502559093771656 0.03133529374534463 0.02659802598178927 0.020724215254949652 0.014101327865385462 0.007746305125537337 0.0029964962728026233 0.0005987559341969135 2.1464162173621893e-07 6.872165046163154e-11 4.036978794333604e-13 3.058719125791907e-08 0.002013443607220558 0.0019662917381641914 0.0017778561152945107 0.0014689713339655793 0.0010743549431013394 0.0007161510862689512 0.0005321686257512966 0.0005992878119208215 0.0009823590659354964 0.0017048850719349848 0.0027002877592057005 0.0037635416588906122 0.004547240512050596 0.004662579616948593 0.0039088096022797305 0.0025133587325641468 0.0011033082322195746 0.000254491183310357 1.1790991610968732e-05 5.0065110079896383e-08 0.03106840036458049 0.04051426366097716 0.041012819805417135 0.03837344287491961 0.03510082170107517 0.03214351991901999 0.029739613992343417 0.027810945963490385 0.026136681112086786 0.024421511037207282 0.02232889661672441 0.019527342888857702 0.015801955382594015 0.011257342545662026 0.006525622786298795 0.0026821152222194088 0.0005718328799800088 1.9808817527937324e-07 6.123453998491905e-11 8.854116641283515e-13 6.244859077112081e-08 0.003604870410455727 0.003622309790386057 0.003452533035151472 0.0031144640641161104 0.0026377065683305164 0.0020594609705375066 0.001