# vtk DataFile Version 3.0
vtk output
ASCII
DATASET RECTILINEAR_GRID
DIMENSIONS 41 41 1
X_COORDINATES 41 double
0 1 2 3 4 5 6 7 8 9 10 11 12 13 14 15 16 17 18 19 20 21 22 23 24 25 26 27 28 29 30 31 32 33 34 35 36 37 38 39 40 
Y_COORDINATES 41 double
0 1 2 3 4 5 6 7 8 9 10 11 12 13 14 15 16 17 18 19 20 21 22 23 24 25 26 27 28 29 30 31 32 33 34 35 36 37 38 39 40 
Z_COORDINATES 1 double
0
POINT_DATA 1681
FIELD FieldData 1
Concentracao 1 1681 double
0.0 1.1992085277532076e-98 3.342300386518277e-92 5.9189843962030336e-86 6.800949859882287e-80 5.672878768117632e-74 3.64762877601462e-68 1.8940381206982087e-62 8.233612640091176e-57 3.0910229564255706e-51 1.0313804391787041e-45 3.148410482025002e-40 9.026223805361609e-35 1.9141356171581188e-29 2.5887813711112212e-24 1.7727554216909426e-19 2.414584189325928e-15 1.9448893727679172e-11 2.3587113215800524e-10 5.387826985048268e-12 3.869347488236223e-12 8.245518148355532e-11 2.3486102873193466e-15 1.6294725005365165e-15 1.1371461248236015e-15 8.754718410077529e-16 7.001411301788393e-16 5.764962469493507e-16 4.832728375617946e-16 4.097659171979547e-16 3.495527024316326e-16 2.986545239895218e-16 2.5444980722941603e-16 2.151429415962926e-16 1.7963132620185166e-16 1.9159925311193827e-16 5.373254454233812e-15 3.0829589822286886e-13 9.21537021360774e-12 1.3016520440070596e-10 6.361769264604471e-10 7.305025432016267e-99 1.4990118589000373e-92 4.177878754944496e-86 7.398736414238188e-80 8.501194125802719e-74 7.0911038464568035e-68 4.559539617647051e-62 2.3675494765716206e-56 1.0292023855474043e-50 3.863781683604539e-45 1.2892265769186777e-39 3.9355161093813335e-34 1.1282788782925815e-28 2.3926714058316165e-23 3.2359793026703977e-18 2.2159460498691e-13 3.0182326512415996e-09 2.4311136155047823e-05 0.0002948391510686387 6.734789089228146e-06 4.8366882170238555e-06 0.00010306905930962564 2.9357652077594705e-09 2.036842255143146e-09 1.4214337758163804e-09 1.0943406563201801e-09 8.751771128646793e-10 7.206208845428983e-10 6.040915302250808e-10 5.122078062633606e-10 4.3694122089787204e-10 3.733184536414262e-10 3.1806250705981143e-10 2.68928888913718e-10 2.2453933349473487e-10 2.3949925628741537e-10 6.716573441046719e-09 3.853701810744843e-07 1.1519221982379887e-05 0.00016270663566608686 0.0007952217942524852 2.2814574396828502e-96 1.2772419787048492e-90 4.5499988346278136e-85 6.492920180512149e-79 6.909623382679833e-73 5.6129705916020654e-67 3.6091369086993354e-61 1.8939241281725843e-55 8.331448136256322e-50 3.145310090160046e-44 1.0410861883225845e-38 3.0830042783316375e-33 8.297958685972056e-28 1.628679697635627e-22 1.97465635518996e-17 1.0549917085914481e-12 1.4580265670797417e-08 5.009753257611125e-05 0.00021751443533444203 2.380252447968346e-06 1.6816704821162797e-08 4.975727935775985e-06 3.164597462251106e-09 2.3828338952532118e-09 1.9444897617117245e-09 1.6085405664048098e-09 1.3601911437623991e-09 1.1648937534775213e-09 1.0067645773345322e-09 8.746082983400403e-10 7.611973379146388e-10 6.615234672718327e-10 5.720225523385065e-10 4.900741076147918e-10 4.142232290049169e-10 4.698145742027801e-10 1.4756644306346294e-08 8.251491690412696e-07 2.402539217865216e-05 0.0003310091412438827 0.001578623467270888 3.0968637992140014e-90 1.645142125585571e-84 1.2820687045986933e-83 5.556754647100626e-78 4.976138614138702e-72 3.6483858777645597e-66 2.1979663622900338e-60 1.1026265564907352e-54 4.676147945711544e-49 1.7011810334674148e-43 5.378701692419552e-38 1.4940486543552696e-32 3.663015673511357e-27 6.5838861266155525e-22 7.02353427838998e-17 3.148621737448237e-12 3.318244121817196e-08 7.582660768545393e-05 0.00023368030794585065 2.5482490766705614e-06 1.5766346289120695e-08 4.731582835643815e-06 3.522701497481717e-09 2.660845355472739e-09 2.2234919781078217e-09 1.91300652511457e-09 1.6660056221973652e-09 1.4630184469400551e-09 1.2907760647826317e-09 1.1411358655990849e-09 1.0082713488940757e-09 8.879655416673014e-10 7.77030144617471e-10 6.72989344106894e-10 5.748486761341056e-10 7.074898196865865e-10 2.5150306736454862e-08 1.3574897066855646e-06 3.817451123564773e-05 0.0005092149600382969 0.00235478251936333 2.7994092895000076e-84 1.566292474011773e-78 6.27174835747756e-78 7.747340619881763e-77 3.70606781945674e-71 2.340327682371956e-65 1.2638656782609992e-59 5.821209292289611e-54 2.2947126870246938e-48 7.781982778534998e-43 2.2797263150444264e-37 5.775824851999391e-32 1.2576609031265853e-26 2.0521725682827254e-21 1.9308701301753697e-16 7.200650010852655e-12 5.90812234433423e-08 0.0001032225442911479 0.00024046632975538218 2.6862655252085825e-06 1.688676768985942e-08 4.7270729892608076e-06 4.008806181835707e-09 2.9120629188374177e-09 2.4417274730985418e-09 2.1277594070924405e-09 1.8830742680996543e-09 1.6787261123288086e-09 1.5017013428689894e-09 1.3442433137432284e-09 1.201206192013035e-09 1.0688420568398939e-09 9.442648424322318e-10 8.25156191424937e-10 7.113427326079615e-10 9.769540952380741e-10 3.938749644645386e-08 2.0318997934130115e-06 5.4726836080262875e-05 0.0007017203883767663 0.003127850818493734 1.6863509932392556e-78 9.738885028458481e-73 3.569217286155754e-72 1.3191207802845917e-71 3.542858528501414e-70 1.552590387370813e-64 7.302399180527436e-59 2.9984751768649047e-53 1.0678963013547632e-47 3.2864191065383153e-42 8.70018443319979e-37 1.9648893417632295e-31 3.723551819802162e-26 5.483959033653076e-21 4.560087734405419e-16 1.4258064986000731e-11 9.502437475917104e-08 0.00013290419340313228 0.0002489003041209039 2.783696791904123e-06 1.7618373680630273e-08 4.724510288613766e-06 4.62853559266193e-09 3.1712676962820502e-09 2.6319181036546526e-09 2.3005370455557226e-09 2.0511575947456795e-09 1.8449284059015075e-09 1.6653947921290876e-09 1.5039395471408973e-09 1.3552204058328731e-09 1.2155249479781664e-09 1.0820364463860037e-09 9.524677037020297e-10 8.279776333572529e-10 1.317086673920792e-09 5.970577267521954e-08 2.9145514179056394e-06 7.458678350291879e-05 0.0009130675868961168 0.0039013190475496225 6.964725682855777e-73 4.105365238798104e-67 1.4198224078047126e-66 4.807474643500267e-66 2.0154039776386503e-65 1.2297335910379604e-63 4.457020407936292e-58 1.6013914054356401e-52 5.055163916640137e-47 1.385755262515589e-41 3.257546355791652e-36 6.4530617286163615e-31 1.0480980134315638e-25 1.3321942754961267e-20 9.832695135725112e-16 2.608907216079238e-11 1.441968438466989e-07 0.00016581299888673184 0.00025547519819191526 2.8448625550229015e-06 1.7951248155061116e-08 4.722433972151423e-06 5.376125865056182e-09 3.4447076684021103e-09 2.8099477801333227e-09 2.4493038920202108e-09 2.1896516969502946e-09 1.9792014524893144e-09 1.7970646687130241e-09 1.6328628581305553e-09 1.4805506474210835e-09 1.33611175197007e-09 1.1965838423453699e-09 1.0595880749965437e-09 9.286363049246646e-10 1.7928622669216043e-09 8.951956363864982e-08 4.095538862255835e-06 9.883853471031217e-05 0.0011479272896896162 0.0046781496180460045 1.9915295990251874e-67 1.1902626408625492e-61 3.951670067642509e-61 1.257147948220813e-60 4.8446515665347065e-60 2.68636463135618e-59 3.2833925971947347e-57 9.266685808412027e-52 2.5509363074662734e-46 6.126638635872786e-41 1.2586523337105535e-35 2.1553559456884255e-30 2.9611024704594374e-25 3.0694224916617805e-20 2.012033992304481e-15 4.553244462912098e-11 2.1126616743146165e-07 0.00020272107283682321 0.00026092630566144107 2.876639688115323e-06 1.8017000015210053e-08 4.720833234433822e-06 6.245362092458046e-09 3.734593851308581e-09 2.981725074872023e-09 2.582961078401071e-09 2.3084727970145208e-09 2.0915440076918318e-09 1.905992015804413e-09 1.739246950868601e-09 1.5842475740536095e-09 1.4364694143602952e-09 1.2926580338337e-09 1.1502452121669022e-09 1.0172255637484021e-09 2.516225122301605e-09 1.3410955562761952e-07 5.698447105257134e-06 0.0001287898105424048 0.001411084989548932 0.0054607516509932045 3.900041518470463e-62 2.353776462551239e-56 7.582111341281375e-56 2.3023584139790033e-55 8.319096505629344e-55 4.235238971932222e-54 4.100218866124535e-53 8.808471313643384e-51 1.5727828863568283e-45 3.1813223047061933e-40 5.541523691969893e-35 8.00745872744718e-30 9.13434377125105e-25 7.608769657412684e-20 4.033765785584029e-15 7.737529977099494e-11 3.0279742467428853e-07 0.0002446087329066872 0.00026537094163017803 2.885033633683223e-06 1.7871510155147943e-08 4.719553523368374e-06 7.228407401522835e-09 4.039707811179148e-09 3.1498462317515614e-09 2.7060163682226166e-09 2.4132490784882933e-09 2.1879694518982224e-09 1.9981189270613384e-09 1.8286456865887342e-09 1.6713087623200817e-09 1.5209485889687576e-09 1.3739312512822464e-09 1.2274572880252926e-09 1.0983761574611275e-09 3.6831517305212653e-09 2.0164211755638286e-07 7.89148198967714e-06 0.00016600545271615527 0.0017073498574632032 0.0062508332822324006 5.0579506172699555e-57 3.0744812986755713e-51 9.673159539513958e-51 2.831546665971725e-50 9.711788435039626e-50 4.601628042236134e-49 3.9847541955784866e-48 1.424621340767543e-46 1.8077814531738704e-43 6.909818835227368e-39 5.83237415464048e-34 5.287453742486475e-29 4.157750971613019e-24 2.438702263412856e-19 8.746130936854412e-15 1.3073526414430666e-10 4.2870443403956736e-07 0.00029252570297224093 0.000268998465361259 2.8741390425216593e-06 1.7559835493307634e-08 4.71853024504813e-06 8.317071477128182e-09 4.35807622337356e-09 3.315291520177502e-09 2.8210400568797344e-09 2.5074193130878963e-09 2.2723647498783925e-09 2.077450022737767e-09 1.9049669389340648e-09 1.7453847752406873e-09 1.5928481772769848e-09 1.4432965089380113e-09 1.2937123942401847e-09 1.1788239490303231e-09 5.639237187697893e-09 3.046761784954893e-07 1.090280198285901e-05 0.0002123423176648555 0.0020414904520560466 0.007049421479156466 4.061423136399716e-52 2.4820510044604467e-46 7.655555831403611e-46 2.1723473192996302e-45 7.120252007736792e-45 3.1571442787951946e-44 2.4432790266102213e-43 6.338450605955697e-42 1.8788642532948402e-39 5.8384577588735844e-36 6.588438041078885e-32 1.4669686844566946e-27 4.4255347516596814e-23 1.3190483606476622e-18 2.7980834769066362e-14 2.5697041856861214e-10 6.089848787815943e-07 0.00034772935351649073 0.000271957309227793 2.847410270218628e-06 1.711931705013132e-08 4.717707897857104e-06 9.503153124056756e-09 4.687811026168976e-09 3.4785658136003413e-09 2.9297127247323126e-09 2.59332832794017e-09 2.3474372554256297e-09 2.146858858940972e-09 1.97108376959005e-09 1.809241109120477e-09 1.654746215001202e-09 1.503084937161757e-09 1.3511361963402978e-09 1.2702429889093661e-09 8.99386072459888e-09 4.623844785227979e-07 1.5036880684356062e-05 0.0002699593981846532 0.0024180316711192194 0.007856754106946546 1.7715187875389981e-47 1.0871223408345588e-41 3.2900755541480305e-41 9.058649899162235e-41 2.8386395527744166e-40 1.1739791680382864e-39 7.983701038420501e-39 1.4326274303312842e-37 1.4455687966281666e-35 9.025779834495097e-33 1.9752726683321854e-29 9.820243718768284e-26 8.386522302302041e-22 9.486726597613994e-18 9.962799076451162e-14 5.476719306130802e-10 9.335715924844545e-07 0.0004227928618318618 0.0002743275278524436 2.8079292003872324e-06 1.659693692881412e-08 4.717047797070769e-06 1.0778909383647013e-08 5.0278579866890954e-09 3.640268183514928e-09 3.033390013741722e-09 2.6727772970441064e-09 2.4152482237816673e-09 2.208535449945579e-09 2.0292226120411815e-09 1.8650607541997875e-09 1.7087138344149906e-09 1.555211039564035e-09 1.4016720575661512e-09 1.3950891147586598e-09 1.4813231475722889e-08 7.035938225698925e-07 2.0692282228491236e-05 0.0003413037544284519 0.0028410361177128147 0.008672249687834779 3.1878159194106264e-43 1.9626368730683298e-37 5.805160716157043e-37 1.5423588411894006e-36 4.573154418818855e-36 1.7277819520688457e-35 9.885899316341387e-35 1.1698202982526986e-33 4.644260620505063e-32 7.967370172174855e-30 4.6237064339241356e-27 6.5093555168215744e-24 1.751907497253705e-20 7.382975277048877e-17 3.630992512057883e-13 1.1786213643855725e-09 1.4339632113334735e-06 0.0005121792982443004 0.00027624069667086864 2.7578025375650958e-06 1.5997688560606558e-08 4.7165194911610525e-06 1.2137404404766458e-08 5.378519954049597e-09 3.801441084280854e-09 3.133439881758805e-09 2.7473359294239994e-09 2.4775055817160584e-09 2.264267991479469e-09 2.081197737511497e-09 1.9146316387571767e-09 1.756474789943576e-09 1.6013000423473467e-09 1.4473957848554458e-09 1.598530052530111e-09 2.4937106193651975e-08 1.0707436807656892e-06 2.837800652332946e-05 0.00042905774988966745 0.0033138469340135597 0.00949446269219649 1.6446565033959725e-39 1.0151772989440253e-33 2.9267528486422827e-33 7.469821819768725e-33 2.0817552261348225e-32 7.120930995376642e-32 3.4176273254549597e-31 2.8402627583714484e-30 5.629946784241038e-29 3.510191555415566e-27 6.762004919610103e-25 3.260327452218178e-22 3.2258367001745345e-19 5.546879969381037e-16 1.3093294157648838e-12 2.525820343138716e-09 2.1943661491083076e-06 0.0006184407444169437 0.00027773728841732443 2.698701193959357e-06 1.5342489029917263e-08 4.716100996338339e-06 1.3572738153515298e-08 5.741915910143734e-09 3.963871742412461e-09 3.2314635445654087e-09 2.818562360234567e-09 2.535768843837235e-09 2.315616827249083e-09 2.128560969585946e-09 1.959479576894927e-09 1.7995031827675444e-09 1.6427686166778522e-09 1.4911972592353298e-09 1.972116408093778e-09 4.247135685990002e-08 1.6246789970388399e-06 3.8722316609294554e-05 0.0005360207522070048 0.0038386805413532137 0.010321005779155878 2.5061552834368857e-36 1.5501203901846866e-30 4.3530800295152484e-30 1.0671671399154554e-29 2.7978694573303345e-29 8.707166006386909e-29 3.575442588285447e-28 2.2485141651141177e-27 2.69579767989956e-26 7.83281460619015e-25 6.12321614913253e-23 1.187428004097187e-20 4.942798740003964e-18 3.842383732770908e-15 4.594674054019521e-12 5.3630097731190864e-09 3.3407344117503455e-06 0.0007445164180305242 0.0002788971015854812 2.632689044576828e-06 1.4649151943512934e-08 4.715774540358643e-06 1.5080384562428415e-08 6.122435867857963e-09 4.130331133170433e-09 3.329456450713649e-09 2.888124122319435e-09 2.5915586010547116e-09 2.3640357333224605e-09 2.1727194009961907e-09 2.0009671428286298e-09 1.8391086481199827e-09 1.6809370860726286e-09 1.53842983834112e-09 2.6985286252644022e-09 7.25044841934273e-08 2.4496203794121833e-06 5.24676730641514e-05 0.0006649278186050211 0.004416289838251454 0.011148550711177624 1.3865444197297267e-33 8.590164390157735e-28 2.3484009604409143e-27 5.5295074359979096e-27 1.365730185887224e-26 3.8866916710275624e-26 1.3887333002117237e-25 6.958365445930878e-25 5.7177657356848205e-24 9.353606466615541e-23 3.5452648658332744e-21 3.1846189392093706e-19 6.267462689761035e-17 2.4185903524517672e-14 1.5557743050840897e-11 1.1248182551385172e-08 5.056254589470333e-06 0.0008936662640225257 0.0002797299171622709 2.5607520701579023e-06 1.3930567176547122e-08 4.7155265338184985e-06 1.6657288224832386e-08 6.527228953901403e-09 4.3048728328404835e-09 3.429996245024464e-09 2.9579439642565144e-09 2.6464869732218982e-09 2.410966709413791e-09 2.2150152373113875e-09 2.040362230138141e-09 1.8765105395020585e-09 1.7172280405346228e-09 1.6008345137730443e-09 4.131053879015176e-09 1.230509263580627e-07 3.6569559964724503e-06 7.04430662490361e-05 0.0008181697268418031 0.005045487336632701 0.011972846530058543 3.394150796490618e-31 2.105547595462173e-25 5.598395804016767e-25 1.2653420930094266e-24 2.945530015924933e-24 7.69406438335696e-24 2.421951652298629e-23 1.0007698473107906e-22 6.103835590662921e-22 6.4201255519813586e-21 1.3666984518237144e-19 6.441306618295355e-18 6.62976735153579e-16 1.3787191385350335e-13 5.0553930370356926e-11 2.3248176652322632e-08 7.602411636732223e-06 0.001069443854575593 0.00028027188969375754 2.4843884868748925e-06 1.319997908542828e-08 4.715343974414944e-06 1.8302126486963547e-08 6.966856243769978e-09 4.493238747932576e-09 3.5364865586489267e-09 3.0303577700917857e-09 2.702359947683298e-09 2.457934641838185e-09 2.2568049500763502e-09 2.0789220915016377e-09 1.9129362757958973e-09 1.7537429934220057e-09 1.7054510929108395e-09 6.9229420444263825e-09 2.0611407191188214e-07 5.385482919544413e-06 9.349741737452165e-05 0.0009974083390963825 0.005722770845948728 0.012788759599001456 4.3047980918185346e-29 2.6732355833466367e-23 6.907542479729383e-23 1.4970700443364924e-22 3.2844874753586022e-22 7.894903721232169e-22 2.2101446213030496e-21 7.716593647296536e-21 3.6838344166200266e-20 2.729861147663514e-19 3.6571339108083815e-18 1.0056137393305173e-16 5.911717438239821e-15 7.121460989621526e-13 1.5705903692689523e-10 4.7236566731109165e-08 1.134543265804152e-05 0.0012755968728579755 0.0002805583514604818 2.4045736145042345e-06 1.2468266580954683e-08 4.7152176795724906e-06 2.0015739136371916e-08 7.456062897710618e-09 4.703511448881838e-09 3.6535581084866863e-09 3.1083704810108335e-09 2.761369809035291e-09 2.506692701806652e-09 2.299602510664252e-09 2.118049018867332e-09 1.949951455039978e-09 1.7950266319731012e-09 1.913261222566385e-09 1.2214262459176266e-08 3.3854165430198745e-07 7.794664079595312e-06 0.0001223917074474587 0.0012031375873488464 0.00644188285468561 0.013590415430599412 3.193124461555578e-27 1.9845157890113242e-21 4.979176837887695e-21 1.0342509132995533e-20 2.1393052153726526e-20 4.7437922013115475e-20 1.189886142515336e-19 3.573590368669916e-19 1.385079050016385e-18 7.704556642175374e-18 7.076024210319596e-17 1.2388530641995916e-15 4.4887580881986275e-14 3.337664564966462e-12 4.651147794316704e-10 9.411880182596696e-08 1.6786460023596027e-05 0.0015159385478108781 0.00028056922644048186 2.3221679017965438e-06 1.1742032023971753e-08 4.715142175897816e-06 2.1801605073537957e-08 8.015102619754326e-09 4.9473437128764955e-09 3.787964715028925e-09 3.1963291771771336e-09 2.826652370005825e-09 2.5597621108553337e-09 2.3456513370801337e-09 2.160046141935381e-09 1.9908819364294534e-09 1.853320634285041e-09 2.3547461025791346e-09 2.1857119673794516e-08 5.420624044325964e-07 1.1047004436362278e-05 0.0001576348212425631 0.0014341561424270918 0.0071935757184346 0.014371330801541534 1.5214816514398441e-25 9.461902809283591e-20 2.304293714508083e-19 4.586015242195945e-19 8.946939812388242e-19 1.8347193400110544e-18 4.1496732392976665e-18 1.0868182916361615e-17 3.5119390933468807e-17 1.5332929365533058e-16 1.028125037590495e-15 1.2294700863886563e-14 2.9290404637597503e-13 1.4214653676108914e-11 1.3096014550371889e-09 1.834190250404811e-07 2.45920607442996e-05 0.0017941031401607671 0.0002803393816678298 2.23826877719226e-06 1.1030379487375902e-08 4.7151120835767785e-06 2.3669388140021004e-08 8.674048035663046e-09 5.244392135593799e-09 3.952540793168264e-09 3.3035304938404966e-09 2.905720268927252e-09 2.6238377029462395e-09 2.4015398049693755e-09 2.2123718879752242e-09 2.047112185677173e-09 1.9636841606348623e-09 3.290998261446081e-09 3.860477633849078e-08 8.415740299391545e-07 1.5275750950419936e-05 0.00019927947302418594 0.0016870728185862138 0.007965460200009869 0.015124668187320393 5.009024754045642e-24 3.1165040194224514e-18 7.367771012207615e-18 1.4052110331376875e-17 2.5877044190067187e-17 4.9198734953756065e-17 1.0089021136705919e-16 2.3297593249876527e-16 6.398959887315575e-16 2.264751399586414e-15 1.1613954917778266e-14 1.0019572266140969e-13 1.6567763093405255e-12 5.5094198787170404e-11 3.497088244450847e-09 3.4863596545716825e-07 3.561767227948925e-05 0.0021132445742316538 0.00027984958117674354 2.153315239010917e-06 1.0336601094397655e-08 4.715122199761629e-06 2.5663941261538077e-08 9.503283596081417e-09 5.65284104296326e-09 4.195308247939933e-09 3.471620710266859e-09 3.0362175936983724e-09 2.7341401037458323e-09 2.5016817781468665e-09 2.3114927612452143e-09 2.1657427465736273e-09 2.227260297891009e-09 5.209958249447923e-09 6.612171434991093e-08 1.2607825583480061e-06 2.0538336668289424e-05 0.0002466940895746793 0.0019558631098197175 0.008742028309154026 0.015843522903928813 1.2075054251918847e-22 7.51532344500963e-17 1.724896712178468e-16 3.154292900992943e-16 5.489785683859642e-16 9.702406501366035e-16 1.8131927757819214e-15 3.72415434186252e-15 8.826512468666513e-15 2.5925201862947524e-14 1.051798245154688e-13 6.828023746711153e-13 8.19008159721259e-12 1.9462836006920903e-10 8.835962961710913e-09 6.444722576384885e-07 5.091102184385607e-05 0.002475565727408152 0.00027909614537837844 2.0681344305346903e-06 9.666067631817066e-09 4.715170607943012e-06 2.8119590269569352e-08 1.0869266572281762e-08 6.517973478707786e-09 4.832748248801375e-09 3.987816311286071e-09 3.476709574091758e-09 3.122544262940967e-09 2.8556073756515518e-09 2.653657448561386e-09 2.5524140827799066e-09 2.944225535936215e-09 8.98124148336291e-09 1.0862936253990876e-07 1.8146231202861184e-06 2.676092207976995e-05 0.0002983614011764938 0.0022316637028812892 0.009504923705145604 0.01652124535426142 2.23199306046128e-21 1.389445023629459e-15 3.097614251067895e-15 5.4360550183700536e-15 8.95749819647332e-15 1.475733903800737e-14 2.5251093930806626e-14 4.6481048616654976e-14 9.616070612381179e-14 2.3857385470902e-13 7.850327002803465e-13 3.957288658481762e-12 3.566298836250913e-11 6.276010331636013e-10 2.1078111941979032e-08 1.1551620537893888e-06 7.168024390433185e-05 0.002881795161861623 0.00027809206773675253 1.983577449086791e-06 9.022560721214253e-09 4.7152580867676314e-06 3.3770848180041594e-08 1.552390602045116e-08 1.0455730168613561e-08 8.26066910372648e-09 6.979533768330469e-09 6.064923071370635e-09 5.3403412999318575e-09 4.753411242999225e-09 4.314218772589379e-09 4.145020703870142e-09 5.086096287613863e-09 1.6196124035160657e-08 1.7013565008355854e-07 2.499546557206419e-06 3.3686556986547185e-05 0.0003517574008810711 0.002502801967843622 0.010233446260514962 0.01715183598280028 3.284892795435579e-20 2.0450847402032317e-14 4.432783195041344e-14 7.475238556449024e-14 1.1685797833036537e-13 1.8002912743589533e-13 2.833513179809646e-13 4.705387314201898e-13 8.578076375373124e-13 1.8214246094517396e-12 4.9493500831802905e-12 1.982479253658843e-11 1.378702336684569e-10 1.8503513950332014e-09 4.7373130578126984e-08 2.0015066571767086e-06 9.919760964898088e-05 0.0033304648291853055 0.00027682775178582044 1.9002494439870963e-06 8.408902041192244e-09 4.715379294036623e-06 6.44476196527296e-08 4.495282635899756e-08 3.7590265876089376e-08 3.2519373618539806e-08 2.7972908069814105e-08 2.36601951435199e-08 1.9666406182080872e-08 1.6160268461602476e-08 1.3329287430163835e-08 1.1508942585192346e-08 1.2299122288628392e-08 3.037079615852672e-08 2.5370206150094525e-07 3.2843895860091784e-06 4.0847852539710625e-05 0.0004033920415866494 0.002755273419181826 0.010905217604911479 0.017730278823836956 3.9705427112072695e-19 2.4719376601083087e-13 5.214848929510004e-13 8.466209914828607e-13 1.258767310669686e-12 1.819803828543182e-12 2.6469890902280696e-12 3.990217668356541e-12 6.4620896215642574e-12 1.1864409394232791e-11 2.6970590706607793e-11 8.721387270103096e-11 4.770309168299406e-10 4.997160947532912e-09 1.0012094580736946e-07 3.3419353571033367e-06 0.00013462334619429838 0.0038171678138724644 0.0002752866915740269 1.8187414170144642e-06 7.825527982605927e-09 4.715532767610205e-06 2.89959338881558e-07 2.6438006426021663e-07 2.403272575384675e-07 2.1137739126647213e-07 1.7893303713317884e-07 1.4578177311177518e-07 1.1457193926278175e-07 8.727284311209425e-08 6.508603179343146e-08 4.8811787913359845e-08 4.0870179942753165e-08 6.262421520982752e-08 3.631205322419031e-07 4.107155685114953e-06 4.758594611935453e-05 0.0004490543900373405 0.0029735854162691575 0.01149701944552868 0.018252853440605794 4.0441067040339464e-18 2.5174736520733325e-12 5.177484890217359e-12 8.109513969425756e-12 1.150321949930559e-11 1.5669534688036912e-11 2.1171404609510328e-11 2.9153533905385927e-11 4.225174401980963e-11 6.765217706276388e-11 1.2986928887206464e-10 3.4238628379430323e-10 1.489993689123404e-09 1.2387981574332148e-08 1.9862122486103894e-07 5.360490298612597e-06 0.00017872238437606874 0.004333716799780171 0.0002734883043842282 1.7399091174538678e-06 7.274232671839545e-09 4.71570206717117e-06 2.024294992898115e-06 1.941009276706784e-06 1.7722140551689638e-06 1.5394866289105585e-06 1.2738782735481771e-06 1.0054803083589618e-06 7.581931085775234e-07 5.473726525461116e-07 3.7995575466081124e-07 2.565078811548598e-07 1.763028804349046e-07 1.6248015580962375e-07 5.179554974565195e-07 4.887409509307502e-06 5.313196763074323e-05 0.00048428920550334963 0.0031420679159035333 0.011985750721321171 0.018717383031865275 3.5473808061505207e-17 2.2078356127447075e-11 4.434480812548433e-11 6.719385830645844e-11 9.126547670528382e-11 1.176876546005999e-10 1.4856218283468085e-10 1.881390544043554e-10 2.458682662430672e-10 3.4607072704406576e-10 5.650902754954525e-10 1.2207628432982548e-09 4.243186934941398e-09 2.8264271365670302e-08 3.692517756457672e-07 8.233670801603506e-06 0.0002314845549728935 0.004867387563639407 0.00027142224485695877 1.6643352647207413e-06 6.752329776858655e-09 4.715716253530265e-06 1.562108946209935e-05 1.4983720694752578e-05 1.3553643770730474e-05 1.1598904840668704e-05 9.408812473791706e-06 7.24396650199462e-06 5.297441431812886e-06 3.6814227903125402e-06 2.432937699736953e-06 1.5330764659790503e-06 9.336743531950468e-07 6.059202924517592e-07 8.449085985432707e-07 5.582126303873167e-06 5.675725347754392e-05 0.0005050423756430201 0.003246430108626378 0.012349449329909248 0.019123367489575608 2.728949238270104e-16 1.697982359768528e-10 3.337797844324043e-10 4.908827877701019e-10 6.412234336871322e-10 7.870620898571613e-10 9.343561392618733e-10 1.0965690023205077e-09 1.303309010852765e-09 1.6265897928064838e-09 2.275049691722622e-09 4.035113119375896e-09 1.1158884826060222e-08 5.9574643427084757e-08 6.423465925436769e-07 1.2070872725847955e-05 0.00029167909103362425 0.005400306631730267 0.00026910437371790004 1.5927094897827618e-06 6.254666179924556e-09 4.713785970788895e-06 0.00012552074420976774 0.00011968054191145132 0.00010720956984687215 9.056555856309442e-05 7.229599840833101e-05 5.460298823985377e-05 3.903393896420778e-05 2.6401902790804533e-05 1.6877670052753053e-05 1.0182675668891535e-05 5.8002288920350944e-06 3.1825753118931053e-06 2.176567336551991e-06 6.4595583443660856e-06 5.802557808103937e-05 0.00050840321100011 0.0032754794288231332 0.012568272626602362 0.019471978063689468 1.8701698876080497e-15 1.1632265489860133e-09 2.243532632000803e-09 3.2140293869198903e-09 4.057570554083934e-09 4.770557174337306e-09 5.36707357674589e-09 5.889773349296414e-09 6.430903142167301e-09 7.19252022250243e-09 8.694264700928689e-09 1.2683122833614133e-08 2.7594845893025874e-08 1.1669449180352022e-07 1.0443269954546361e-06 1.683302665570147e-05 0.0003564338682506259 0.0059091154608474205 0.00026656414638510635 1.5258182107357248e-06 5.766131884543451e-09 4.688725911724459e-06 0.0010306703580826016 0.0009772202499422312 0.0008685053459254614 0.0007263118961809437 0.0005728383056487585 0.00042666520862073983 0.00030023210062547897 0.00019945786260125412 0.00012487668594100194 7.345132996174627e-05 4.0418896642233414e-05 2.075917435563471e-05 1.0401267261910727e-05 9.892571524054178e-06 5.756253479958248e-05 0.0004933806482402283 0.003222692617338865 0.012625503394210385 0.01976593036043036 1.1566108990915789e-14 7.190927153997966e-09 1.364607967597535e-08 1.912244082956922e-08 2.3461708719828912e-08 2.6606953073982547e-08 2.8613617390809118e-08 2.9667754382729156e-08 3.0121745356493574e-08 3.06047003661846e-08 3.240625289742855e-08 3.9128351941130334e-08 6.597614532652223e-08 2.1476817675688822e-07 1.585995449002432e-06 2.2248348928914833e-05 0.0004209735041093041 0.0063651026731327285 0.0002638043040789822 1.4643074155989715e-06 5.2313344721919685e-09 4.339996948355111e-06 0.007434852983052577 0.007039215803220849 0.006244588634692286 0.005210259315974288 0.0040987630685361195 0.0030446098534054906 0.0021364172586387222 0.0014151563259873462 0.0008830109747311941 0.0005170624736084495 0.00028251700323100236 0.00014291861778852833 6.66699085632382e-05 3.277884800624189e-05 6.153710379475024e-05 0.00046253711677398475 0.0030875892124459614 0.012508404541788498 0.02000923538672378 6.523624780595717e-14 4.053897833718351e-08 7.593119898069552e-08 1.0455389251106878e-07 1.2543160617594527e-07 1.382692218435878e-07 1.4349949575898655e-07 1.422213875865134e-07 1.3619254173439314e-07 1.2787733229997594e-07 1.209694631652423e-07 1.2294098212350553e-07 1.5922076507638868e-07 3.7984517112451576e-07 2.2530376555268623e-06 2.776311388359191e-05 0.00047868689958435794 0.006734928319810001 0.0002608524334126253 1.408626751558473e-06 4.488983270597271e-09 5.403532597175446e-07 0.006679531842833823 0.005358947426688556 0.0052726443324996874 0.0054761198032259205 0.005487943062993328 0.005118810287423197 0.0043993418918628945 0.0034799186079431704 0.0025347620945693383 0.0016990766257316324 0.0010448764396999459 0.0005858023592515113 0.0002965997018006266 0.0001372089818713664 9.610582631471509e-05 0.00042714176510560455 0.002877448816847575 0.012209088172604497 0.02020686933862521 3.3832564004064334e-13 2.1012789045689639e-07 3.897679552946056e-07 5.299481227037557e-07 6.256150065340828e-07 6.758527137260073e-07 6.837911098530227e-07 6.560178935566787e-07 6.019036044483371e-07 5.328415863749439e-07 4.621282289539151e-07 4.0782532169731155e-07 4.118024889041974e-07 6.777600875844074e-07 3.0155103809792333e-06 3.257662158751516e-05 0.0005217101507146053 0.0069820739259411685 0.00025771669431571317 1.359455821133821e-06 4.552547803739572e-09 4.389105610200532e-06 0.022314380720078346 0.022890242488758667 0.024140557173033764 0.02620194631256358 0.02564851629365096 0.022438764191895905 0.018081173135561568 0.013618585504164516 0.009643474978589061 0.006417996584963677 0.003993872966319526 0.002301843825738029 0.0012113733276457256 0.0005730436977039099 0.00026865856436801203 0.00042894718339838724 0.002613037450509265 0.011726016133218106 0.020364401586984666 1.621755546050354e-12 1.0066645884333703e-06 1.8558115842972016e-06 2.5038980463897743e-06 2.9278273611480107e-06 3.125546655418567e-06 3.114929187047066e-06 2.9303983245955165e-06 2.6186242041704776e-06 2.2329886555612293e-06 1.8287433189317904e-06 1.462669999950796e-06 1.21348976405