# vtk DataFile Version 3.0
vtk output
ASCII
DATASET RECTILINEAR_GRID
DIMENSIONS 41 41 1
X_COORDINATES 41 double
0 1 2 3 4 5 6 7 8 9 10 11 12 13 14 15 16 17 18 19 20 21 22 23 24 25 26 27 28 29 30 31 32 33 34 35 36 37 38 39 40 
Y_COORDINATES 41 double
0 1 2 3 4 5 6 7 8 9 10 11 12 13 14 15 16 17 18 19 20 21 22 23 24 25 26 27 28 29 30 31 32 33 34 35 36 37 38 39 40 
Z_COORDINATES 1 double
0
POINT_DATA 1681
FIELD FieldData 1
Concentracao 1 1681 double
0.0 4.240583950150171e-97 1.1617300568324868e-90 2.0403231644498361e-84 2.317003632224048e-78 1.902780467352433e-72 1.1993902148322708e-66 6.0781020385744144e-61 2.5671765768115398e-55 9.323516237471552e-50 2.9977149815723615e-44 8.788247000582264e-39 2.411563026733648e-33 4.691899592350411e-28 5.236173204952638e-23 2.0047411040228584e-18 1.1938978089969293e-14 4.3203331741396374e-11 2.363369624989409e-10 5.225428882747923e-12 3.866010959597708e-12 8.257094168974305e-11 2.3519075431583798e-15 1.6317601441940136e-15 1.1387425859879747e-15 8.767009360667937e-16 7.011240782989858e-16 5.773056106413707e-16 4.839513259225265e-16 4.103412103867552e-16 3.5004346351276264e-16 2.9907383025867794e-16 2.5480706835229546e-16 2.1545658656189963e-16 1.8365333698000947e-16 7.210597575335653e-16 4.1044147274835705e-14 1.5185263207198713e-12 2.948712928699324e-11 2.768998167013845e-10 9.427506764068077e-10 2.686725484832322e-97 5.300734178271664e-91 1.4521637082646962e-84 2.5504059958854595e-78 2.8962568572836925e-72 2.378477390850868e-66 1.4992389679305532e-60 7.597633407014543e-55 3.2089732326132334e-49 1.1654404309824322e-43 3.747146714696169e-38 1.0985317143833289e-32 3.0144561949800865e-27 5.864879109410825e-22 6.545221742364002e-17 2.505928384769677e-12 1.4923734551439707e-08 5.400420687280505e-05 0.00029542143946063864 6.531791299856125e-06 4.832517552900065e-06 0.0001032137596831205 2.9398867808555177e-09 2.0397018120026612e-09 1.4234293538439372e-09 1.0958770263444202e-09 8.764057989978106e-10 7.216325899663884e-10 6.049396413544841e-10 5.129269233246544e-10 4.3755467273064694e-10 3.738425868971777e-10 3.1850908381164827e-10 2.6932094542967083e-10 2.2956685090236887e-10 9.013254115723516e-10 5.1305225137691906e-08 1.8981594194261598e-06 3.6858941095870834e-05 0.0003461250477765473 0.001178439288259186 3.561675269879061e-92 1.7242494276213954e-86 1.673300547798982e-83 2.3569093090773182e-77 2.482894413351881e-71 1.9888609838807963e-65 1.2556484358859803e-59 6.440403161762818e-54 2.7563467417315993e-48 1.0076431872739477e-42 3.2148285738969724e-37 9.135538250278368e-32 2.347706227358719e-26 4.2238667926503925e-21 4.224650133606782e-16 1.203890952701141e-11 7.247321905306994e-08 0.00011127697746534327 0.00021769719137727897 2.1141698417636436e-06 1.3948001586611505e-08 4.959951072107638e-06 3.167993356666697e-09 2.3858580863290666e-09 1.9470449962513546e-09 1.610693204241714e-09 1.3620309096022076e-09 1.1664806822602632e-09 1.0081431979675798e-09 8.758107004430047e-10 7.622471420437924e-10 6.624382026995153e-10 5.728153432369316e-10 4.907902305954586e-10 4.259029231749205e-10 1.972117069943975e-09 1.126955455477831e-07 4.049799299447395e-06 7.653796660929487e-05 0.0007003310415298145 0.002323282726586097 5.215429540910794e-86 2.7666715032647087e-80 1.2924296756188212e-79 2.148199541504629e-76 1.896531664488661e-70 1.370236310580114e-64 8.101311003435525e-59 3.9704793041652654e-53 1.637179058972317e-47 5.761900840778929e-42 1.753129089968509e-36 4.660055996447866e-31 1.0859932457233462e-25 1.7870398508342422e-20 1.564835947830139e-15 3.629428748835517e-11 1.6523945951042646e-07 0.00016840882724211776 0.0002338480318982822 2.2499526288641936e-06 1.2571553262075183e-08 4.737759077033618e-06 3.5265648747508588e-09 2.6640743055147677e-09 2.2263096632846454e-09 1.915488472985112e-09 1.6682006740901705e-09 1.4649671945475963e-09 1.2925096088366572e-09 1.1426784540084918e-09 1.009641634380911e-09 8.891777941722942e-10 7.780952094651307e-10 6.739858680176924e-10 5.964545638958528e-10 3.382660044746853e-09 1.9195889783656738e-07 6.6356109852926626e-06 0.0001210208865493925 0.001071052762596832 0.0034411661534987236 4.634676178072686e-80 2.5913330128625577e-74 1.0522067811406742e-73 4.550886613626104e-73 1.515119646978932e-69 9.388446647966685e-64 4.964489950047372e-58 2.2290016380737517e-52 8.523096511813725e-47 2.788509829991364e-41 7.833745240816764e-36 1.8902735548650463e-30 3.88616085704089e-25 5.795787190046691e-20 4.457574767394065e-15 8.365443851559143e-11 2.946233547868522e-07 0.0002292274317232345 0.00024058859533268923 2.3593039134485075e-06 1.3338390971803627e-08 4.733675106294354e-06 4.013348583094043e-09 2.9155367292810636e-09 2.444753182374916e-09 2.130462276282277e-09 1.8855080932001753e-09 1.680924001737049e-09 1.5036873873638856e-09 1.3460357382824383e-09 1.2028189278352865e-09 1.07028559369899e-09 9.455469852622835e-10 8.264174250764359e-10 7.491032004144435e-10 5.403324856543165e-09 3.00257919845062e-07 9.886880833670673e-06 0.000172559144624827 0.0014665919812232786 0.004537723786499793 2.722787040524946e-74 1.5718218857078019e-68 5.838522246211614e-68 2.2079441311868267e-67 1.0930193077776337e-66 6.746210598718943e-63 3.090475254854198e-57 1.2320927749441629e-51 4.238562439590339e-46 1.2525070397169217e-40 3.161911119181984e-35 6.752765301442769e-30 1.1968103364327418e-24 1.6071455611827075e-19 1.086924848693712e-14 1.667479285164999e-10 4.744661754512357e-07 0.0002951063217358238 0.00024897345800266963 2.4328222425684263e-06 1.379745642356392e-08 4.73134663235402e-06 4.6339749375422586e-09 3.175038385675947e-09 2.635138107642385e-09 2.3034172132154174e-09 2.05377119640581e-09 1.8473118701159244e-09 1.6675704278280587e-09 1.5059225748406717e-09 1.3570215688075576e-09 1.217151700053118e-09 1.0834939735116434e-09 9.540208633755898e-10 8.936981517895643e-10 8.483506092126425e-09 4.542029465493229e-07 1.410852970770753e-05 0.00023377346539843734 0.0018951809712938752 0.005617279663082255 1.0846230354268323e-68 6.391777968857131e-63 2.2392120515567434e-62 7.7483394786265965e-62 3.372233826082779e-61 2.2853828097902323e-60 2.084548078049388e-56 7.216976213010963e-51 2.186821515848576e-45 5.7160945014472905e-40 1.270845187487983e-34 2.3562984203497574e-29 3.53115356728583e-24 4.050777999679047e-19 2.4153856895883326e-14 3.069671120650831e-10 7.208668055778007e-07 0.0003681326997671214 0.00025548548705177045 2.4743167873937528e-06 1.3945129513349767e-08 4.729462316857869e-06 5.382678180977141e-09 3.448823385647482e-09 2.8133640568734188e-09 2.4523407069901196e-09 2.1924125904387255e-09 1.981731999971634e-09 1.799389285518466e-09 1.6349961825310157e-09 1.482501803282982e-09 1.3378861556863454e-09 1.1981850255002493e-09 1.0615436889274337e-09 1.0450191454753517e-09 1.3390718232106703e-08 6.788902220237861e-07 1.970984328803168e-05 0.0003077334988519516 0.002364882532513482 0.006683064437080608 2.945459473077956e-63 1.7601150576543002e-57 5.915490944443004e-57 1.9207068887559802e-56 7.665584429578892e-56 4.538223264020871e-55 5.949631897312127e-54 5.0529324562470775e-50 1.2895854178810784e-44 2.8949950032945382e-39 5.5197563630127704e-34 8.670557917520524e-29 1.0731450334139753e-23 9.729074159072024e-19 5.0934931176752306e-14 5.388414019335454e-10 1.0574215788022096e-06 0.0004500170851471295 0.00026085992721185174 2.48992274462352e-06 1.3886545226537418e-08 4.728011868588582e-06 6.2532367269627925e-09 3.739098705682122e-09 2.985343661785441e-09 2.586144028334525e-09 2.3113612845156237e-09 2.0941967614949086e-09 1.9084380851148264e-09 1.741502157882524e-09 1.5863206685490915e-09 1.4383646794282604e-09 1.294378961923235e-09 1.1529001053204826e-09 1.2288111287587678e-09 2.145655429361932e-08 1.01271080274024e-06 2.7243766146826377e-05 0.00039805138454023365 0.0028834935723364035 0.007737203213839242 5.355283977104089e-58 3.2317130484420025e-52 1.052997593716078e-51 3.2585981676691205e-51 1.2159437973059235e-50 6.571780631213789e-50 7.282066036395979e-49 5.356654345107625e-47 4.464534114717528e-43 3.768224732814548e-38 4.1659269199108086e-33 4.44544553311412e-28 3.976746496375807e-23 2.6199597375136064e-18 1.0551223309218966e-13 9.209204896089763e-10 1.517374445991533e-06 0.0005429308041820009 0.0002652121869677854 2.484933909969391e-06 1.3666742265653783e-08 4.7268544678563e-06 7.237803539614424e-09 4.0446399013096744e-09 3.1536736207394117e-09 2.7093392993545736e-09 2.4162521629468697e-09 2.1907273031842623e-09 2.0006669463516663e-09 1.8310020910790776e-09 1.6734828496496586e-09 1.5229442247312102e-09 1.3757553693003014e-09 1.2315581248797785e-09 1.494246351951703e-09 3.500723730732079e-08 1.5142955401695347e-06 3.7450118515045944e-05 0.0005089311281014546 0.0034582948896743054 0.008780548172296707 6.22375762167963e-53 3.782848191009572e-47 1.2025772455763398e-46 3.5804770313241274e-46 1.2635882653410945e-45 6.307031626066354e-45 6.107641803870816e-44 2.794811939264324e-42 2.482644073797878e-39 1.9874692378790518e-35 3.8726922585176706e-31 1.1276744760163925e-26 3.8438790667838888e-22 1.1964736991542559e-17 2.402645552935329e-13 1.5655558809867948e-09 2.1510383558820117e-06 0.0006491993187040587 0.00026872961296058035 2.462977690978704e-06 1.3322025007491285e-08 4.725931077546406e-06 8.328176207585217e-09 4.363467857252133e-09 3.3193331812000518e-09 2.8244987665061914e-09 2.5105277137417924e-09 2.2752153121552467e-09 2.0800856528126112e-09 1.907409083020072e-09 1.747643922152019e-09 1.5949283313302431e-09 1.4452179973314844e-09 1.3011410993593725e-09 1.9400408723139073e-09 5.811219012260249e-08 2.27252182599013e-06 5.1313581077849806e-05 0.0006452084020673092 0.004095860894764989 0.009812748646845754 4.215010281700961e-48 2.5757922421004038e-42 8.013273227815601e-42 2.305729104727875e-41 7.732356813492699e-41 3.569130432648193e-40 2.986296484523505e-39 8.69321234469528e-38 2.0768121500695786e-35 2.94850982087072e-32 1.1641487147789874e-28 8.321237350273043e-25 8.331431256162751e-21 9.355794491878699e-17 8.441147107274369e-13 3.1137760853978567e-09 3.060290154150857e-06 0.0007716126857731536 0.00027155797343857016 2.4271071763259317e-06 1.2882499125613877e-08 4.725190990520379e-06 9.516140580383272e-09 4.693689600896598e-09 3.4828260720227917e-09 2.9333040002610526e-09 2.5965350638087876e-09 2.35037123071535e-09 2.1495712895657544e-09 1.973599885897016e-09 1.8115730455942484e-09 1.656898631098405e-09 1.505124670477073e-09 1.3667169471430194e-09 2.7687106424508365e-09 9.785994564339718e-08 3.420857142655518e-06 7.011993276479972e-05 0.0008123037582829048 0.004801621194877117 0.010832165098071727 1.3780800907308093e-43 8.456608527984919e-38 2.5728055580841483e-37 7.14142640901746e-37 2.265799916860273e-36 9.545925511443437e-36 6.632498563672353e-35 1.1524155227051267e-33 8.697664280129281e-32 2.962889438897613e-29 2.9654511974757115e-26 6.032114365645173e-23 1.939548665292169e-19 7.988769921935731e-16 3.1672111678135264e-12 6.690589459165595e-09 4.6958319291891e-06 0.0009372098353124226 0.00027374756074183395 2.3801758433844533e-06 1.2389127567216255e-08 4.72459880412785e-06 1.0793940825165921e-08 5.0342477248493114e-09 3.6447507824596906e-09 3.0371114301722583e-09 2.676077055696948e-09 2.4182585481915055e-09 2.211316444426387e-09 2.031803683381967e-09 1.8674560069706507e-09 1.7109296245140635e-09 1.5574789378651487e-09 1.4379638007202365e-09 4.398222846506372e-09 1.6646125482016963e-07 5.1562105663069676e-06 9.551087070107893e-05 0.0010160973409438724 0.005579434982539329 0.01183590359574131 1.4377718073316981e-39 8.851846615825238e-34 2.6182548285466004e-33 6.955839698016973e-33 2.0606047965071797e-32 7.751106756639296e-32 4.35167047312399e-31 4.7612052865081355e-30 1.4744833705261848e-28 1.5733588144825133e-26 4.865326460014787e-24 3.282245676391759e-21 3.831859947194832e-18 6.3662103340221585e-15 1.1733084342440165e-11 1.4448627720729331e-08 7.213595659941662e-06 0.001133951062149628 0.00027544302935912104 2.3239696382804533e-06 1.1842714793221583e-08 4.724126662556095e-06 1.2154629098016134e-08 5.385444338469816e-09 3.8061501773632515e-09 3.1372900428522257e-09 2.750724872320222e-09 2.480586997769311e-09 2.267111348711207e-09 2.083836922708043e-09 1.917083047502369e-09 1.7587515531733982e-09 1.604233275110333e-09 1.5373309095562398e-09 7.6844678370781e-09 2.8459615237030143e-07 7.762255864745291e-06 0.00012952350986590355 0.0012626932906349487 0.0064311491576928455 0.012819850995812643 3.9359926379070834e-36 2.4295187608332508e-30 6.986105424787579e-30 1.7760470575238023e-29 4.9169527623248396e-29 1.6604625815147664e-28 7.740965324088317e-28 5.970488592294964e-27 9.826173263240405e-26 4.285286768652388e-24 4.962729659395287e-22 1.2867829709935829e-19 6.162203325134032e-17 4.5649563016003693e-14 4.196196475443671e-11 3.09342598164087e-08 1.1030248031125792e-05 0.0013671847245663117 0.00027667891039358553 2.2600219897764908e-06 1.1260002097681355e-08 4.723754407611099e-06 1.3592294736681642e-08 5.7494008047410075e-09 3.96881329335656e-09 3.2354426269519156e-09 2.822038242611376e-09 2.5389177895727476e-09 2.3185181650177827e-09 2.131253461149553e-09 1.961983234146127e-09 1.801868782425305e-09 1.6480294916437437e-09 1.7207966781793062e-09 1.43508013409785e-08 4.864279102757557e-07 1.1635766971658299e-05 0.0001745885711587053 0.0015580162717620837 0.007355969771235158 0.01377869818968571 3.382481215897703e-33 2.0921482437560984e-27 5.8503851923984275e-27 1.4254742204155934e-26 3.7017926405526147e-26 1.1334129355792775e-25 4.512210434355336e-25 2.6589844060082072e-24 2.7720338335561585e-23 6.174854580592446e-22 3.2156329641975356e-20 3.684636361786599e-18 8.099344358630725e-16 2.931931711617872e-13 1.4375213869184298e-10 6.535296856553799e-08 1.6763435191872294e-05 0.0016429777036534841 0.0002775280904310061 2.190187828528814e-06 1.0655171570549017e-08 4.723465723265307e-06 1.5102403316649163e-08 6.13051359936127e-09 4.135514939305616e-09 3.333567324898502e-09 2.8916870799850353e-09 2.5947740408249025e-09 2.366993903075786e-09 2.1754659875291266e-09 2.003537511464514e-09 1.8417736182795267e-09 1.6947052193764955e-09 2.1288584847447922e-09 2.7771036299364326e-08 8.26564552847523e-07 1.7310684334337365e-05 0.00023346415932413249 0.0019072747497371866 0.008350069738842763 0.014706087615661832 1.1437097128636575e-30 7.085704394171149e-25 1.926496046513613e-24 4.50142934199789e-24 1.0993056348351597e-23 3.0732116656463543e-23 1.0651949618872922e-22 5.046154274034687e-22 3.721707759106049e-21 4.9866376823056985e-20 1.3704017532639264e-18 7.884418875199682e-17 8.810874296421244e-15 1.69200463702473e-12 4.703497432476653e-10 1.3587256360340646e-07 2.5301077251648438e-05 0.0019679200312682638 0.0002779928785823109 2.1154136837719116e-06 1.003859789428518e-08 4.723248111177936e-06 1.6681898596956102e-08 6.535948562812735e-09 4.3103210797493026e-09 3.4342531937885986e-09 2.961607041195214e-09 2.6497850808163125e-09 2.414007715034976e-09 2.2178709242447603e-09 2.043178327145613e-09 1.880756179368464e-09 1.7617276963666257e-09 3.1051363833036062e-09 5.430362360449301e-08 1.38867190180504e-06 2.5470722364133803e-05 0.0003090774430918287 0.002314228566751918 0.00940608072919271 0.015594806556475344 1.833009512992453e-28 1.1370982994657355e-22 3.0040667012052227e-22 6.731097761772507e-22 1.5478861248760655e-21 3.9707374013631e-21 1.2147709892493009e-20 4.784074633739054e-20 2.6790940378984026e-19 2.418925533397325e-18 3.9922723330601255e-17 1.2915313668511661e-15 8.036328172688609e-14 8.808133969971968e-12 1.4668542071304874e-09 2.774058608126894e-07 3.789228727978239e-05 0.0023490022569247052 0.00027810134025540035 2.037068681208422e-06 9.420626800761437e-09 4.723089659151337e-06 1.83295482671271e-08 6.976382810181232e-09 4.4990920534783175e-09 3.541036094399705e-09 3.0342941335472944e-09 2.7059682089926706e-09 2.461396353189354e-09 2.260371673334801e-09 2.083476512096508e-09 1.9257708604148234e-09 1.9052103802863963e-09 5.453440979486218e-09 1.0535904822585881e-07 2.2942930175770177e-06 3.693634582620329e-05 0.00040422258250716775 0.002780289780123826 0.010512903499303268 0.01643703204501196 1.6070081800775776e-26 9.97933773664969e-21 2.5606083122567134e-20 5.499190300062941e-20 1.1917339609065184e-19 2.815353024811967e-19 7.681284320482969e-19 2.575183578614996e-18 1.1484363002333125e-17 7.558324752304134e-17 8.269089042874083e-16 1.6552588879198625e-14 6.215570399326841e-13 4.150768778087373e-11 4.353076356115657e-09 5.549571323451261e-07 5.625537585716842e-05 0.002793324103141515 0.00027788039178281435 1.9560846538703364e-06 8.809645340054373e-09 4.722981906986056e-06 2.004745224688687e-08 7.46790742268418e-09 4.711346546571575e-09 3.6601382768972136e-09 3.114597855997134e-09 2.767780335695856e-09 2.513931447535396e-09 2.3090727184622012e-09 2.1347277910236385e-09 2.0059469929987515e-09 2.3000251251731724e-09 1.094959383318042e-08 2.0021891666121622e-07 3.7084171966292214e-06 5.26080281818301e-05 0.0005211297844928056 0.0033036275202015736 0.011655547879486597 0.017224701996200867 8.593357092185641e-25 5.34073005112089e-19 1.330313155428094e-18 2.7382915563141906e-18 5.597960676848256e-18 1.2219084301277501e-17 2.9974016822398133e-17 8.70546894363313e-17 3.19646667859768e-16 1.620343938718109e-15 1.2653545547518001e-14 1.6944790763832386e-13 4.117309457933806e-12 1.7754309713981478e-10 1.2271914397025121e-08 1.0853599581002186e-06 8.269049086466345e-05 0.00330773481800551 0.0002773020813518693 1.873298681730088e-06 8.210825144440017e-09 4.722919738357643e-06 2.1852945508612394e-08 8.045192915682329e-09 4.973861653674107e-09 3.814481792394607e-09 3.2246063010162507e-09 2.858569367034973e-09 2.598538180910877e-09 2.3987084671088287e-09 2.2511908094325322e-09 2.244284980866994e-09 3.4595751497890535e-09 2.3267064702060545e-08 3.6919334096029537e-07 5.8362035209953715e-06 7.334859721984448e-05 0.0006608717012959662 0.003878211581940076 0.012815418786410666 0.017949884642691857 3.048841429863631e-23 1.8960317158627933e-17 4.5843274447545194e-17 9.045711240904314e-17 1.746175265738832e-16 3.532613914084559e-16 7.844633498132332e-16 2.0005320126739965e-15 6.1977755343929056e-15 2.516993832457119e-14 1.4818767848290727e-13 1.412921087002038e-12 2.3568865541223528e-11 6.907942137894442e-10 3.2811573347862524e-08 2.070193545108891e-06 0.00012017609699705843 0.00389823091053935 0.0002763938256446705 1.789738496380448e-06 7.630803286670854e-09 4.722898125888042e-06 2.3884486329026438e-08 8.870688482920544e-09 5.442005234983919e-09 4.156634870914166e-09 3.519002559760976e-09 3.1401528284269032e-09 2.891727774562216e-09 2.735771187615545e-09 2.709012156358267e-09 3.1273761813692775e-09 6.800246201596695e-09 4.94883258944036e-08 6.55957925805433e-07 8.903332006357385e-06 9.979154187751962e-05 0.0008226971520871814 0.00449309941144674 0.013970783256008128 0.018605261837650114 7.662410146981641e-22 4.767370876262115e-16 1.1192683483909926e-15 2.1182317623721858e-15 3.865928226312227e-15 7.27059358633031e-15 1.4701218855597706e-14 3.3278348362779515e-14 8.857585178231208e-14 2.966517912074575e-13 1.3714802453928997e-12 9.773574718715201e-12 1.175846380360388e-10 2.4498466722715207e-09 8.305694178004393e-08 3.8412425142013495e-06 0.00017241150467963814 0.004569261025471094 0.00027513113647957956 1.7059010303155003e-06 7.072037903995766e-09 4.722912218620258e-06 2.7228138185531084e-08 1.107353125384394e-08 7.235228070326194e-09 5.789159050355291e-09 5.083459950107212e-09 4.6878070178813925e-09 4.477080196057969e-09 4.456981310562184e-09 4.8102461191723505e-09 6.466346022201559e-09 1.6046929026396695e-08 1.0238047551834285e-07 1.1172059413827254e-06 1.311425977919044e-05 0.00013208887981370292 0.001003360369297707 0.005131960508928856 0.015097480154033581 0.01918461062873667 1.437307473336239e-20 8.945557440366005e-15 2.0399714965920935e-14 3.705840769774072e-14 6.404643707928785e-14 1.1230732790672192e-13 2.078795990270131e-13 4.213329288832665e-13 9.773239703876548e-13 2.757697481203287e-12 1.0318156850174657e-11 5.7061908374920786e-11 5.154629825519631e-10 7.935035231645107e-09 1.9872778419655899e-07 6.915804912225963e-06 0.0002437477601198866 0.0053227337555079145 0.00027350793227052595 1.6225988734032048e-06 6.538171207657531e-09 4.72296001198735e-06 3.971666432653624e-08 2.2568021526652424e-08 1.810588321777542e-08 1.6151971274247204e-08 1.4946031631474484e-08 1.4072363544759486e-08 1.3490722396578509e-08 1.3381316971265942e-08 1.4347582945882941e-08 1.8777072125724194e-08 4.084143908282541e-08 2.0388555893298455e-07 1.8176646870111108e-06 1.858654203813895e-05 0.00016963598545216365 0.0011966188806905953 0.005773188433576325 0.01616986789280038 0.019683265956658903 2.0978405054592563e-19 1.3059313346268155e-13 2.8946026261984023e-13 5.053027287092024e-13 8.286136490448742e-13 1.358844608710852e-12 2.3136076306082596e-12 4.230165313496854e-12 8.645973061782294e-12 2.0893345939179924e-11 6.470996395935231e-11 2.857237960013454e-10 2.001384118122808e-09 2.352203125158136e-08 4.4879251621676617e-07 1.2050619139461994e-05 0.00033895036149677926 0.006157020713766052 0.00027153869502423157 1.5406592661466792e-06 6.031529309932435e-09 4.723041364604094e-06 1.1323410915897529e-07 9.508761906835903e-08 8.782302573677928e-08 8.168371488311934e-08 7.528016066422286e-08 6.872657743079575e-08 6.261331539043797e-08 5.787984781843447e-08 5.633626575154435e-08 6.350406669790184e-08 1.0697170282366203e-07 3.9199999301988457e-07 2.8210268184427978e-06 2.52741400687579e-05 0.00021084120884245618 0.001393042378834239 0.006390444394067641 0.017161858583834837 0.02009855971114573 2.465047056035037e-18 1.534669891489152e-12 3.3096608967763216e-12 5.560025417749924e-12 8.669835774827519e-12 1.3339532935405889e-11 2.0988822130310694e-11 3.484354585174712e-11 6.332465128867537e-11 1.32688111341881e-10 3.4590798532068465e-10 1.245762843506787e-09 6.9372227795951486e-09 6.39598216960695e-08 9.55383431711635e-07 2.027078002506788e-05 0.00046269204547118547 0.007065701044024574 0.0002692215884430202 1.4607153323739513e-06 5.553546565833677e-09 4.723147706254949e-06 5.684985797728511e-07 5.451843384014406e-07 5.15727254491592e-07 4.7471023342015533e-07 4.250938940540316e-07 3.716171689954101e-07 3.192927333773209e-07 2.7303097593011835e-07 2.385973098866982e-07 2.2791218124661844e-07 2.898034452293344e-07 7.406000085244604e-07 4.184121574414127e-06 3.2904120407117154e-05 0.0002530405889803468 0.0015803439318116395 0.006953964106406904 0.018047829001807115 0.020430109682644932 2.3982491055705878e-17 1.4930762054271796e-11 3.136497387855619e-11 5.0803506233441584e-11 7.552075893771645e-11 1.0940296708781673e-10 1.5980741623490045e-10 2.4232979645035553e-10 3.9464612823124854e-10 7.24054631462332e-10 1.608576151499863e-09 4.798264943625838e-09 2.1638451946286716e-08 1.5993488053170947e-07 1.9151562574107647e-06 3.283646092406003e-05 0.000618758255938423 0.008036467426344002 0.0002665557160336214 1.3833891523519259e-06 5.103837126499286e-09 4.723254157184143e-06 3.2893000144836302e-06 3.2152117677062783e-06 3.0182264806245793e-06 2.723859982098322e-06 2.368775238186217e-06 1.991453333900023e-06 1.626239847080565e-06 1.3004777101798824e-06 1.0355035307874958e-06 8.56207073186868e-07 8.393593879647211e-07 1.4321579802633877e-06 5.982456218025916e-06 4.0970993619191275e-05 0.00029265066439910587 0.001744292319035705 0.007432299149721367 0.018803352121093398 0.020679978538519255 1.977158437201483e-16 1.2307911468846144e-10 2.5226043673464845e-10 3.9480228428742445e-10 5.611786016463104e-10 7.684068810086572e-10 1.0471047300970339e-09 1.4589516451785542e-09 2.143844507768863e-09 3.4719104013881852e-09 6.633785009419827e-09 1.6560832220493163e-08 6.124035891226829e-08 3.687990295069655e-07 3.612058095831274e-06 5.110132040728369e-05 0.0008089116344346903 0.00905005398156053 0.0002635843691871796 1.3095013737081288e-06 4.682463044445029e-09 4.723198528743587e-06 1.897193804500079e-05 1.8481614690772425e-05 1.7141494700806663e-05 1.5185550398335349e-05 1.2881029235945998e-05 1.0487014409312901e-05 8.219037924889742e-06 6.229582547886276e-06 4.607928389169712e-06 3.4023345521246426e-06 2.7011845086135134e-06 3.0535439391890128e-06 8.46389297402923e-06 4.8866106672813374e-05 0.0003256264753947236 0.0018702437983656047 0.007794663309956665 0.019405662801988095 0.02085266110545236 1.4085072025441725e-15 8.766357118914286e-10 1.756112008003771e-09 2.6625914997042387e-09 3.631459446313001e-09 4.7206682817226295e-09 6.033422971646411e-09 7.772112883587026e-09 1.0375996972145969e-08 1.4940756156753158e-08 2.47253744579948e-08 5.19863884969017e-08 1.5868701066616614e-07 7.868125221186984e-07 6.405662502857127e-06 7.622305491654781e-05 0.001031527744199943 0.010079534760074532 0.00026033247247084896 1.2396575633579327e-06 4.286038909279709e-09 4.72189662700101e-06 0.00010709009442317668 0.00010363192378189002 9.504962532924256e-05 8.29167143522958e-05 6.89449524050193e-05 5.4740135515031015e-05 4.156934195280016e-05 3.0258026190424525e-05 2.1194006617606542e-05 1.442649790224486e-05 9.868426972571681e-06 7.89055318291765e-06 1.2723884571051515e-05 5.6320919462662186e-05 0.0003482634505732095 0.0019450944549411547 0.008013457569487889 0.019833841437550247 0.02095487736469491 8.811813115940748e-15 5.482831545409734e-09 1.0757455301805892e-08 1.5850001607321243e-08 2.082743469521479e-08 2.5833785066371178e-08 3.115234926598903e-08 3.7355662784494306e-08 4.564951944961267e-08 5.8879297419337107e-08 8.492013457720703e-08 1.5089126557144178e-07 3.805610425098403e-07 1.5595572680661787e-06 1.0677493341633212e-05 0.00010871924773022457 0.0012801630331090075 0.0110900097071857 0.0002568616167007005 1.174538127495754e-06 3.908404838699881e-09 4.7117689753762505e-06 0.0005911139251716853 0.000568458018966096 0.0005166658490182479 0.0004453491796139875 0.00036478916079531393 0.0002843409450366545 0.00021109720096862777 0.0001493639527036639 0.00010080356400225354 6.50581558290983e-05 4.05958861429141e-05 2.5950436460092667e-05 2.3720022006769237e-05 6.494716433769154e-05 0.00035851186427186317 0.001959536476000126 0.00806700814163011 0.02006873933546246 0.020995190785639706 4.9079349465432296e-14 3.052704530272224e-08 5.880405259828993e-08 8.44838544699916e-08 1.0744489849910542e-07 1.278966335984901e-07 1.4652092519468513e-07 1.6484086692495763e-07 1.859759015940539e-07 2.1673148524478132e-07 2.74328582539536e-07 4.1286050844347643e-07 8.565377624085914e-07 2.8887543893142283e-06 1.6728891646437572e-05 0.00014793380121356576 0.001542388104617823 0.012038752088872753 0.0002532574983163307 1.1148871539705458e-06 3.534464346681848e-09 4.63570462985373e-06 0.003103091492889596 0.002970603448895489 0.002683995155809229 0.0022962824638562535 0.001863865579141675 0.0014370808537681951 0.0010530360563085243 0.0007331643484000292 0.00048460024593385164 0.00030374537369958534 0.00018065168924001864 0.00010338344587691947 6.42431213899982e-05 8.460222118802791e-05 0.00035907679345472873 0.0019105671429251344 0.007942181507488471 0.020092945651697072 0.02098349794778598 2.4606772344339733e-13 1.529874864699647e-07 2.901050343372053e-07 4.080076133874953e-07 5.047953624842509e-07 5.803243001537619e-07 6.365106459128975e-07 6.779859506578959e-07 7.134510590230224e-07 7.59415184683715e-07 8.518091488852838e-07 1.0899971360866656e-06 1.8450790146399692e-06 5.047053153828883e-06 2.4654947918638756e-05 0.00019155794336374638 0.0017992833552205288 0.012875913696577777 0.0002495902960375772 1.0613388833481943e-06 3.1202501729373733e-09 4.026545562869343e-06 0.012985013638084658 0.012455459579611179 0.011302701638937112 0.009727001346340768 0.007949574120851859 0.006174056818843583 0.004556349317716719 0.0031920672676566107 0.0021187794609820194 0.001328490141160866 0.0007838993111919517 0.00043453505246553154 0.00023211079594334026 0.00015965015611932328 0.00036820974087288315 0.001806029108714884 0.007637143632634948 0.019890863918177282 0.02093044276399557 1.1201368763253909e-12 6.96080759461156e-07 1.3032687528118879e-06 1.8019110566757048e-06 2.1810500370184277e-06 2.4387397914412754e-06 2.5830086857422314e-06 2.631792742291818e-06 2.6146504217533204e-06 2.5772488060017515e-06 2.598280283748022e-06 2.853947476326323e-06 3.9135379799090295e-06 8.455044734877562e-06 3.4271801974301113e-05 0.00023544475993134175 0.0020260367999241744 0.013545703761269574 0.00024596128604658746 1.0143852236220132e-06 2.5955334449434237e-09 3.432971531899207e-07 0.005580728055902543 0.004165615831831585 0.005018539704699797 0.006443410189376699 0.007520907192061035 0.007818943160642676 0.007305153281023661 0.006200036628754838 0.004816386682927264 0.0034377016966564973 0.0022552417251965806 0.0013568002972925743 0.0007498212587921342 0.00041270205949930596 0.00044438065455494017 0.001674864183230012 0.007165337598765379 0.01944942897187089 0.02084682230516983 4.658224157353212e-12 2.8931768569773037e-06 5.365378225514131e-06 7.326112860588674e-06 8.72685418483406e-06 9.562547286879106e-06 9.871404084326203e-06 9.73061293451358e-06 9.253481894221627e-06 8.588931858045905e-06 7.93718184321545e-06 7.629038289152972e-06 8.502861841683387e-06 1.4006290608702624e-05 4.527046218359663e-05 0.00027399944317838324 0.002194111458748663 0.013988015095363685 0.00024245644907076256 9.746889310100726e-07 2.6352721886803717e-09 3.5588466656858226e-06 0.029847580443834194 0.030219962186508697 0.030994787412110786 0.03202578040287438 0.030071362007649153 0.025850809012335215 0.021000766213445012 0.01634342346745232 0.01220749060286139 0.008702108516926514 0.005860232236400484 0.00368096788865931 0.0021282337999810907 0.001140368874900336 0.0007402994639544234 0.0015916318766642503 0.00656432315595493 0.018760424823215636 0.020743042202714338 1.775245687788828e-11 1.1019573110775678e-05 2.0309934138584253e-05 2.7515786326031957e-05 3.245570253407983e-05 3.512358611467062e-05 3.568123501813014e-05 3.443598085484085e-05 3.1815834491695166e-05 2.8338363664462448e-05 2.4596696989330793e-05 2.132549165964538e-05 1.9815222164853455e-05 2.4263378136080517e-05 5.8017015341143487e-05 0.00030147540245329887 0.0022750761202304727 0.014140461025732