# vtk DataFile Version 3.0
vtk output
ASCII
DATASET RECTILINEAR_GRID
DIMENSIONS 41 41 1
X_COORDINATES 41 double
0 1 2 3 4 5 6 7 8 9 10 11 12 13 14 15 16 17 18 19 20 21 22 23 24 25 26 27 28 29 30 31 32 33 34 35 36 37 38 39 40 
Y_COORDINATES 41 double
0 1 2 3 4 5 6 7 8 9 10 11 12 13 14 15 16 17 18 19 20 21 22 23 24 25 26 27 28 29 30 31 32 33 34 35 36 37 38 39 40 
Z_COORDINATES 1 double
0
POINT_DATA 1681
FIELD FieldData 1
Concentracao 1 1681 double
0.0 1.6223606827314014e-22 -1.6101809893483814e-19 2.1142695772776223e-14 2.3626530877296798e-11 9.236128768063843e-10 9.00207404794464e-09 3.9024249185630496e-08 9.873002355965346e-08 1.7121971278729127e-07 2.2680561487123864e-07 2.4856486255681363e-07 2.3170837833433584e-07 1.9065711759798915e-07 1.4307842737257493e-07 9.943135223768138e-08 6.749718503850533e-08 3.274724195896582e-08 1.1126388929099643e-11 3.839987549622828e-12 3.8409464773357384e-12 8.367912004278891e-11 -8.981634147173357e-12 -1.3055071450908496e-11 3.417210730786885e-11 2.052319221244563e-09 2.1065829508164403e-08 7.634156585240613e-08 1.4255827449011623e-07 1.6992962095012113e-07 1.515751357743069e-07 1.1662420095477675e-07 8.750836250928905e-08 6.887049996400806e-08 5.7662346896414235e-08 5.067237766682926e-08 4.609131681981862e-08 4.3038295130549154e-08 4.1069972188951e-08 3.994903428500991e-08 3.9550273404252474e-08 -1.2168638194557966e-21 2.0279524757749346e-16 -2.012727812900705e-13 2.642839085866605e-08 2.9533187223151875e-05 0.0011545169729639774 0.011252601562004848 0.04878034909824365 0.1234126260421471 0.21402480650114045 0.2835072446392587 0.31070631558478234 0.2896357046262981 0.23832158469119663 0.17884817729414604 0.12428928972845396 0.0843715487953167 0.04093408443245754 1.3907997287763482e-05 4.799988255699354e-06 4.801186925089862e-06 0.00010459898373260619 -1.1227051665600844e-05 -1.631885236870707e-05 4.27151677852848e-05 0.002565401031025745 0.02633230795103501 0.09542703357231766 0.17819798567091977 0.21241219611727236 0.18946906839016608 0.1457803678176719 0.1093855384347314 0.08608819279327036 0.07207799003451093 0.06334052230584852 0.0576141921160901 0.05379791195148157 0.05133750630616094 0.04993633280529667 0.049437881305588995 1.429437134134275e-18 5.739301600334311e-13 1.977920885060335e-09 2.207327627516402e-06 0.00023976507160151033 0.004638432175310433 0.031658649976649876 0.10835538896635545 0.22775397787701604 0.3344027578330967 0.37414681553108564 0.33825117513712 0.2554996481400675 0.16720150509222179 0.09740933299368423 0.05100848827181801 0.023304369545634227 0.006739161887585005 7.449896544003925e-07 1.31401737608514e-10 2.1208512129860864e-10 4.807344350226095e-06 1.4844319381975243e-05 2.795907651913805e-05 0.0006906956255428397 0.01307397420091661 0.07507931729616775 0.19244015839108888 0.2773506646387634 0.26372202349651425 0.18831928246685825 0.11491620772415098 0.06854943914920102 0.04428952694771724 0.0319239519014079 0.025146869785812483 0.021103755209033136 0.01858511194790344 0.01703777492305445 0.016186875230513043 0.01589497255514493 4.4795828229009567e-13 2.2232670082754396e-07 5.062179183467106e-06 0.00012042818981483847 0.0020475851939793454 0.01734071302975415 0.07555592168900224 0.1936478985131601 0.32860824065594235 0.40371933773491653 0.383029983234161 0.29318528399995786 0.1863086172528903 0.10116751753379292 0.04768202981255637 0.019327450654800318 0.006157880869645089 0.001197384044197701 1.1629007734226097e-07 8.738079038854802e-12 5.262180000463091e-11 4.793014323044104e-06 0.0028994789714354464 0.004659095823095968 0.014145730118376719 0.059279361373087175 0.16965447489913638 0.2889919994282762 0.31319567511662855 0.23655830339790473 0.13668601004435854 0.06726587164988411 0.03219815341666382 0.01704528455449544 0.01054153006707355 0.007443095066078766 0.005773661871080234 0.004804490487378975 0.004237612371652925 0.003935840046152393 0.0038349243590427686 1.6941759215769645e-10 9.257381623490835e-05 0.0005046037722963817 0.002776810425898042 0.01467750416929468 0.05925065193240669 0.1628037974408181 0.30610231920888925 0.4129824059708488 0.42065611157374544 0.3372133507807014 0.21886565703501729 0.11722957776483353 0.05297731407567602 0.020301988887982063 0.006409682952236525 0.0015224921896553171 0.00020581736941389906 1.7795869876162523e-08 1.2879334235133118e-12 4.1474267961594225e-11 4.71034677862519e-06 0.03851542079289246 0.050151446406362925 0.08813605394445138 0.17529491634600528 0.2891685040950326 0.3394178702095346 0.28086926084745517 0.17104794383299252 0.08163134373779458 0.033254785071849105 0.013076757461482368 0.005736851758135602 0.0030549582240094013 0.0019397840238443958 0.0013958199837922453 0.00110089158466887 0.0009362954559689434 0.000851281801634617 0.0008233755892241494 4.534189532566857e-09 0.0025910858574564512 0.008441975064781723 0.024502032932404345 0.06737546205227489 0.1590704575542416 0.2945092896236419 0.4142104417224629 0.4462301281197443 0.37663656353003194 0.2546539349769612 0.13990705027676575 0.06278015065617691 0.023542191507209688 0.0073459520753286645 0.00183765212025686 0.0003330393782079099 3.3038315527287916e-05 2.6399996563650612e-09 1.8296708861619742e-13 2.891099324766432e-11 4.293564644497962e-06 0.14726194838322745 0.17097785960237252 0.22675074807898318 0.3037637011245251 0.34637585103612867 0.3034930856142753 0.19978041712684408 0.10086408734254054 0.04079981648211263 0.01416484496747558 0.004717088774511636 0.001753779954249903 0.0008135825334995362 0.0004678628777335906 0.00031397857694816407 0.00023567128714604724 0.00019380361278383001 0.00017277632777956795 0.00016598793498046754 3.522245505492812e-08 0.020636930308778615 0.05055302570479031 0.1022701495531531 0.1893907619605238 0.309057768831623 0.4200018307131437 0.4599628023962636 0.40295969525252723 0.2841105164205417 0.1625915526532511 0.07579116197270272 0.028571734798650626 0.008868398574877739 0.002261840989671576 0.00045323912448106286 6.418848937433653e-05 4.828398232198475e-06 3.5994574578950336e-10 2.4041525178265056e-14 1.732109485884028e-11 3.3618655019545566e-06 0.2699603780759951 0.28913163810591364 0.32013295748575105 0.3340067198302045 0.2953602868537095 0.20726807840011324 0.11331038972674402 0.04887209554559873 0.017193206245482994 0.005227383445241911 0.0015197412079676364 0.0004922916952735898 0.00020257953732651866 0.00010662685846528965 6.719743004555536e-05 4.822970947613302e-05 3.8473099710590156e-05 3.3693709134919945e-05 3.217395836644513e-05 1.2910704205021438e-07 0.07682534326416054 0.15403128314872172 0.24436001550612235 0.3460414171913811 0.4331120166515806 0.46270936818499897 0.41074323177463906 0.2992712457899031 0.1785169101843674 0.08717691937539218 0.03472840882529371 0.01115189501622684 0.0028532661168136474 0.0005967707758626894 9.673698338190229e-05 1.0888227565972884e-05 6.386364721503549e-07 4.478683773383661e-11 2.90469162561133e-15 8.809802157800118e-12 2.165255476721518e-06 0.2998565920766858 0.3014829233160905 0.29266690989313876 0.2558174597899523 0.18781784775949512 0.1110274792825441 0.05222932204051507 0.019761550160100488 0.006185317457266336 0.0016857833348258033 0.00043951285612961385 0.00012753784916712973 4.754904218171714e-05 2.3203310420507483e-05 1.384174129059024e-05 9.549469018327464e-06 7.414844601992624e-06 6.391885032016291e-06 6.070901315526148e-06 2.8357281915264285e-07 0.1705113007647694 0.2903888519510062 0.3822626872771144 0.4422773412471089 0.45145044377664856 0.3974287897982723 0.29528145394165034 0.1827014667869413 0.09349798831492671 0.039378951029439536 0.013545488939858177 0.003751940525807219 0.0008182328528078619 0.00013972986719110365 1.8456980122333497e-05 1.6730523283033811e-06 7.801784667754379e-08 5.180994177292726e-12 3.3238946574999596e-16 3.814682720522424e-12 1.141595801212404e-06 0.23051727760752885 0.21985891700152874 0.19251274612348296 0.14702215641115896 0.09350727872879472 0.048231309780842 0.02006395817156986 0.0068059028789811 0.0019317825092318578 0.0004812191978661453 0.00011506984981272867 3.066784232457694e-05 1.058058325670671e-05 4.852565381682274e-06 2.762933946344685e-06 1.8422466108917262e-06 1.3972950907013718e-06 1.188056855861191e-06 1.123130591912949e-06 4.308597606901372e-07 0.2610196870469283 0.38304848083892895 0.4301107049724634 0.42133060601029204 0.3636676158414968 0.27209516610696544 0.17326154448286904 0.09264322684491143 0.04122351273481821 0.0151482397390698 0.0045519439331003 0.0011019691836456963 0.00021016158710753806 3.059422708114583e-05 3.2686491655595867e-06 2.408860122052915e-07 9.057164062611073e-09 5.726475309797337e-13 3.795832961315262e-17 1.4222526346473538e-12 5.001689370672954e-07 0.13350393816942918 0.12163281534789687 0.09784947870689396 0.06706445219120492 0.03800925656209666 0.01754183473146039 0.006589568171395146 0.0020395707529329253 0.0005333869529210775 0.00012341678079172993 2.757464267985093e-05 6.894607905831066e-06 2.2439142063981706e-06 9.799439351176143e-07 5.36895397060471e-07 3.478299520490305e-07 2.586047145040862e-07 2.1731051863003934e-07 2.0461966885206147e-07 5.001345198463661e-07 0.304698365409014 0.3853005770880028 0.37305574135565817 0.31512220361540055 0.23492139693569677 0.15242143611292613 0.08462591733969234 0.03966481222191733 0.015535127565262725 0.005037952268243492 0.0013381496664441135 0.0002867772034138889 4.852436479711711e-05 6.2774594916450945e-06 5.892617207264102e-07 3.613892797167706e-08 1.092528623104117e-09 6.591931460008793e-14 4.870618297578389e-18 4.632887682822063e-13 1.859849541255773e-07 0.06172269367433291 0.05398987412397863 0.04042313339677526 0.02532993528893946 0.01305209051761106 0.0054915392566144625 0.0018936910841871762 0.000542604566375452 0.00013250248124450827 2.8867509605849473e-05 6.12004427958783e-06 1.4611089225582877e-06 4.5601440109915124e-07 1.918545677335458e-07 1.0191538476787033e-07 6.4478161363521e-08 4.714818450029617e-08 3.923283164603446e-08 3.681969541532377e-08 4.79403949076469e-07 0.29336157680923813 0.3161613119299381 0.263644544356187 0.1933296859132621 0.12589128013926382 0.07173973480260137 0.035162773419675504 0.014614246944016855 0.005093129330220179 0.0014734268028080773 0.0003498564351278797 6.717370666844047e-05 1.0212042141190926e-05 1.1908351247149551e-06 1.0100103256725212e-07 5.609557926200457e-09 1.5500877204354486e-10 8.44027389707154e-15 7.48210502077328e-19 1.3380683066703346e-13 5.99299607680556e-08 0.023744440880939126 0.02001898400921336 0.01408584569711636 0.008181149279031043 0.003891012322404318 0.0015143715151417782 0.0004858144190640875 0.00013044120869476467 3.0087524866949374e-05 6.244480630406784e-06 1.2725425066891137e-06 2.9429607481726946e-07 8.927545599513257e-08 3.6548306518414765e-08 1.8952111200429762e-08 1.1764341103484794e-08 8.487149632689078e-09 7.006260060821456e-09 6.557692747050565e-09 4.0576447756315614e-07 0.24918984943087588 0.2245301413775262 0.15944067023199288 0.10120828244113717 0.05776565630363584 0.029115249545307417 0.012706605082298678 0.004725879320384596 0.0014794342138511898 0.00038559553594732534 8.270366618598027e-05 1.4383513602557329e-05 1.986969981777817e-06 2.112822702555847e-07 1.6397094346142503e-08 8.362084476479815e-10 2.1319433284714232e-11 1.0475141260225532e-15 1.2274282370418152e-19 3.47297485682136e-14 1.7045392980665686e-08 0.007837082336592312 0.006389112174321749 0.0042573194137565116 0.0023165955472289404 0.001029143653491524 0.000374924198786027 0.00011315125772751584 2.876985194143939e-05 6.331607681285973e-06 1.2647214343118248e-06 2.5048024779447995e-07 5.6776233335051204e-08 1.6922775307877398e-08 6.797521924593143e-09 3.461437595506838e-09 2.1171291190686032e-09 1.511297487461941e-09 1.239787387293531e-09 1.1579788264409664e-09 3.2152956864378375e-07 0.19804479572831404 0.14590469658629723 0.08652520827667204 0.04698150558632244 0.023408424118212125 0.010451838044224353 0.004081551062225899 0.0013676784232312814 0.000387652904066807 9.182704182693036e-05 1.7959215877895043e-05 2.857322842525076e-06 3.6232949365142726e-07 3.549326997750501e-08 2.5466664103811774e-09 1.2050056402587544e-10 2.8624066424937425e-12 1.2714645667189324e-16 2.1214655397061886e-20 8.195574002254654e-15 4.345884374652056e-09 0.0022712544183084225 0.0017953358987911876 0.0011401241123403607 0.0005863498202269285 0.00024572016276035044 8.463460843084729e-05 2.426353040173339e-05 5.896614237015578e-06 1.2494458118806361e-06 2.4239369586622444e-07 4.7099441123056e-08 1.056425588591736e-08 3.1204153686182656e-09 1.2382275453400189e-09 6.224169721830219e-10 3.765472146332692e-10 2.6668229119399677e-10 2.1774313627029085e-10 2.03054799387273e-10 2.497651292779478e-07 0.1542200031254156 0.09132605759292367 0.04421154853109767 0.020130792831572243 0.008650209971399835 0.0034058730595167615 0.0011910112654925946 0.0003610399884173637 9.321990967756448e-05 2.021825357053279e-05 3.635575106720005e-06 5.338351300281662e-07 6.270754017527538e-08 5.711013882141825e-09 3.823041888694898e-10 1.693731128537141e-11 3.781749783254526e-13 1.5251185370932287e-17 3.747127908847069e-21 1.7755467749582643e-15 1.005854996860962e-09 0.000588253255331711 0.0004519459733318596 0.0002750242159918987 0.00013468043577111971 5.369379900655495e-05 1.7639259450335814e-05 4.845554060865225e-06 1.1351136862656973e-06 2.3350589251905044e-07 4.4361176345962077e-08 8.526798446977416e-09 1.907315998696094e-09 5.620763906751152e-10 2.2158042939628171e-10 1.1044652111243656e-10 6.632113118134057e-11 4.671449281780464e-11 3.801705225137185e-11 3.541448871305054e-11 1.9568137805185886e-07 0.12106847037254224 0.057369491654586074 0.02228153840016213 0.008310312962522748 0.003018976006657392 0.0010358156549250318 0.00032288828508154443 8.859677277504738e-05 2.091700522327592e-05 4.17768666707593e-06 6.955095397495201e-07 9.497815387704643e-08 1.0417856122271993e-08 8.892672959630443e-10 5.5992369860572876e-11 2.3412665153459607e-12 4.952083567002221e-14 1.8242309743231455e-18 6.562361119529023e-22 3.5591908983119643e-16 2.134654270113068e-10 0.0001380066825269905 0.00010328022584811079 6.0517056129763696e-05 2.8406010754621134e-05 1.0855546750130886e-05 3.4284793404270146e-06 9.097020601568898e-07 2.070515144106416e-07 4.1672743670966256e-08 7.811914748928246e-09 1.4961485258497101e-09 3.3589105899250754e-10 9.929054435938307e-11 3.906836386240053e-11 1.9386961523151342e-11 1.15912511859718e-11 8.138218408354084e-12 6.61033530582442e-12 6.15391255951677e-12 1.5637034794314176e-07 0.09690304545858305 0.03706656676634443 0.011503932615419493 0.003450427844972153 0.0010345545548294847 0.0003033334997178625 8.334060383085377e-05 2.061127877240446e-05 4.45204025500817e-06 8.217419438008544e-07 1.2733668758581683e-07 1.6275194678905276e-08 1.6784729076702671e-09 1.3524051204459607e-10 8.066332410302601e-12 3.205620327600224e-13 6.466252476471725e-15 2.192315990837758e-19 1.1159510569101386e-22 6.641077976422499e-17 4.1859222304134874e-11 2.9626211918348616e-05 2.1641037657296154e-05 1.2264192573872533e-05 5.551225532083197e-06 2.0477999605737187e-06 6.264225027735005e-07 1.617697023319085e-07 3.604508119984799e-08 7.150873804531886e-09 1.332182877736689e-09 2.5587073624688206e-10 5.7963809946492467e-11 1.7262412699710904e-11 6.806693488091075e-12 3.3746671105416945e-12 2.0147817496675366e-12 1.412959255350901e-12 1.1469091296299053e-12 1.0675064327647225e-12 1.2753256864193393e-07 0.0791334568723175 0.024838936483286087 0.006224513573446768 0.0014944259010948565 0.00036255888387493805 8.8656535142052e-05 2.1066471906476615e-05 4.645872859064601e-06 9.144631192864115e-07 1.5606400959887166e-07 2.258240361745783e-08 2.714406715737698e-09 2.646873277018162e-10 2.0252337370600515e-11 1.1512311665494284e-12 4.374196002809795e-14 8.462646442990688e-16 2.6632979359978632e-20 1.820286775892477e-23 1.1583440265656497e-17 7.626749980379163e-12 5.862563571086876e-06 4.188111985909993e-06 2.3051079006845606e-06 1.0119230076791444e-06 3.627438514965008e-07 1.0825059465227379e-07 2.7410421284886122e-08 6.0237270740148214e-09 1.186527132560194e-09 2.2118033752985746e-10 4.285678093334271e-11 9.841481293653297e-12 2.9637794558757727e-12 1.1752392399031704e-12 5.840562683057984e-13 3.491296526694036e-13 2.4504517979187763e-13 1.9900989112688774e-13 1.8526636226543676e-13 1.0587034870945759e-07 0.06575822057788755 0.01725202684366273 0.00355700881493991 0.0006910187557703165 0.00013479437502983874 2.6904681484574618e-05 5.394493610433924e-06 1.0414097290596643e-06 1.8487035722721663e-07 2.905697557894529e-08 3.927117392504907e-09 4.4513543478976823e-10 4.120990122461205e-11 3.00871939711967e-12 1.6381952261572073e-13 5.980711837795988e-15 1.1149314697389001e-16 3.2862205475785727e-21 2.828295280481757e-24 1.893370429478201e-18 1.295707044407365e-12 1.0746276121357504e-06 7.522096822301358e-07 4.0373409501143066e-07 1.7285509927695136e-07 6.0610058173403e-08 1.777241095385647e-08 4.445566485599677e-09 9.708040598922977e-10 1.912515846631059e-10 3.59135703164189e-11 7.059330521894146e-12 1.6500260237263076e-12 5.041326070819846e-13 2.0168787307374526e-13 1.0078119692558948e-13 6.047419913880519e-14 4.256108235204009e-14 3.462335589005823e-14 3.225056256851985e-14 8.927957072102043e-08 0.05549665546603487 0.012392609376443759 0.0021471381367161205 0.0003445491912810102 5.459339766577884e-05 8.816145228360091e-06 1.456805764433235e-06 2.4000784448248204e-07 3.771538040429949e-08 5.402274898259695e-09 6.790222530771084e-10 7.255912887159453e-11 6.390574912144339e-12 4.4665659514310406e-13 2.3384080616289193e-14 8.234961152097566e-16 1.4847180919915957e-17 4.1370787265620593e-22 4.167138146261688e-25 2.9023704645138843e-19 2.0557376247752186e-13 1.8294353974916024e-07 1.2570936570559904e-07 6.606698988098219e-08 2.774283240829014e-08 9.579294516290133e-09 2.780378823980641e-09 6.923516140172325e-10 1.5140825728473063e-10 3.0056074109550895e-11 5.7240530781573e-12 1.1476511992298025e-12 2.7409800486500074e-13 8.522920605989678e-14 3.4509771921997345e-14 1.7390636557034256e-14 1.050177482244024e-14 7.425004188135443e-15 6.0573046834927684e-15 5.6475237478912344e-15 7.647225203623727e-08 0.04756379185276936 0.0092091755007635 0.0013696074087293255 0.00018596224222088443 2.4467758674632803e-05 3.225528697032746e-06 4.3403596929938753e-07 5.9430141352285905e-08 8.04344356428009e-09 1.0291091872592668e-09 1.1890605943524852e-10 1.1915387072635263e-11 9.97162728693806e-13 6.67924636640073e-14 3.3699190587320247e-15 1.1478447080431242e-16 2.0067497699196753e-18 5.337911105463455e-23 5.798940743088718e-26 4.167414433955902e-20 3.0442740602831764e-14 2.893248808056701e-08 1.9554546718603674e-08 1.0105369844833736e-08 4.186512020322827e-09 1.433552260381825e-09 4.150767109240787e-10 1.0373855659989086e-10 2.2905958957472598e-11 4.618160301203891e-12 8.982758689104089e-13 1.847249349706473e-13 4.525606023623749e-14 1.4366737382177565e-14 5.906241799643403e-15 3.0107603698738706e-15 1.834364659241569e-15 1.3053867448024733e-15 1.0691719500518909e-15 9.981554140620216e-16 6.663644189726004e-08 0.041464150493781826 0.007103645892322442 0.0009271343781850942 0.00010922729159060595 1.226955107496875e-05 1.3525119397292898e-06 1.4938973848364482e-07 1.6738504106103882e-08 1.891616541224642e-09 2.094310222708993e-10 2.172430638273284e-11 2.0123156396155002e-12 1.5884604667429563e-13 1.0167833912406715e-14 4.942300487202892e-16 1.629758955738849e-17 2.766476015808574e-19 7.10120401310232e-24 7.587717442522946e-27 5.5858392521024146e-21 4.195626145432902e-15 4.241264641433146e-09 2.825135893582846e-09 1.4420999122095713e-09 5.931702696184224e-10 2.029692648146565e-10 5.912460138365565e-11 1.496321531468403e-11 3.3657622797066154e-12 6.950768601466742e-13 1.391248272238538e-13 2.951825442484634e-14 7.449300881553757e-15 2.4225122184661653e-15 1.014532322863459e-15 5.247915787888633e-16 3.2344975557382053e-16 2.3213117269661473e-16 1.9111498458996233e-16 1.7872716420193789e-16 5.9232153277106646e-08 0.0368677263586366 0.005719846384633087 0.0006714094667499603 7.051172323006002e-05 6.972941096605978e-06 6.645573144773594e-07 6.199080495796245e-08 5.737034341180217e-09 5.314601106971043e-10 4.902690992999247e-11 4.385761072179315e-12 3.6388865289047547e-13 2.65454241347774e-14 1.6049316832567625e-15 7.471150037246119e-17 2.3788119860811386e-18 3.9165664545403975e-20 9.837049459666286e-25 9.28461417182896e-28 6.9459160049380225e-22 5.350656449236641e-16 5.733026448595461e-10 3.7719876004628966e-10 1.9113495091739028e-10 7.861005957076954e-11 2.7109812714017683e-11 8.020341432748342e-12 2.075811751570887e-12 4.803952503716664e-13 1.0257658239504368e-13 2.1303378300687753e-14 4.693792478931094e-15 1.2259375172662848e-15 4.099649380975568e-16 1.7553717010749608e-16 9.245037636634586e-17 5.780496855216963e-17 4.1924754595429e-17 3.474021870061317e-17 3.2557719570216817e-17 5.3882273477672184e-08 0.033543499669551405 0.004838461445765212 0.0005251962285179492 5.066932089094272e-05 4.5628215996699275e-06 3.909509674261975e-07 3.21631743516577e-08 2.556868986658315e-09 1.9771333651003165e-10 1.495092989507007e-11 1.1019396765100813e-12 7.748479831365453e-14 4.978917412107498e-15 2.747551567604931e-16 1.1986443780435091e-17 3.638249569960666e-19 5.767372252442563e-21 1.4522093430455664e-25 1.0569193263024846e-28 7.934648490423293e-23 6.254729999132732e-17 7.081813940796377e-11 4.613724362333643e-11 2.334210166729279e-11 9.678232324583261e-12 3.3972836826818106e-12 1.0319452397002929e-12 2.762524296607706e-13 6.651789667697749e-14 1.484170673765212e-14 3.228151315394438e-15 7.441391668936646e-16 2.0226354408678524e-16 6.986445728499584e-17 3.070964550360048e-17 1.6528413609037283e-17 1.051600404325779e-17 7.725182318729366e-18 6.451639103692716e-18 6.061908702576906e-18 5.0314631260260113e-08 0.03132425694604838 0.00432352566929458 0.000447443842728666 4.09897370564717e-05 3.4871632584971e-06 2.8027666374489923e-07 2.139314065937294e-08 1.55041078340664e-09 1.0643880029232608e-10 6.90329995361727e-12 4.2175398442795947e-13 2.4120254117358756e-14 1.2688935197980713e-15 5.902627950159726e-17 2.2563152785242046e-18 6.218174011506785e-20 9.190317199050048e-22 2.4914955070004757e-26 1.1276838765712882e-29 8.204008071688155e-24 6.605032478599974e-18 7.881708142750074e-12 5.099566391575135e-12 2.593911989453395e-12 1.0950658649190787e-12 3.9594509779870835e-13 1.2509849015900747e-13 3.510225046374018e-14 8.909181836076229e-15 2.10261940219031e-15 4.841269167332371e-16 1.177802271130511e-16 3.353863893114593e-17 1.2029895240111356e-17 5.453862366241716e-18 3.0120993980660337e-18 1.9566342674703088e-18 1.4594915830744586e-18 1.2303020057268233e-18 1.1595370716845166e-18 4.832796589297569e-08 0.030085911919660077 0.004092981714910321 0.0004168202091354561 3.751786023892421e-05 3.1311816772563695e-06 2.463771434650124e-07 1.8350350845744453e-08 1.2899644124454455e-09 8.496226434843269e-11 5.187145946539958e-12 2.895201393023979e-13 1.4521434249649048e-14 6.401769264049716e-16 2.4032651005807635e-17 7.288731392421746e-19 1.608006527383345e-20 1.9602220954493504e-22 7.466376759453923e-27 1.338971607951682e-30 7.505808339464618e-25 6.161539143979963e-19 7.731112229450833e-13 4.986156524514383e-13 2.572808484938628e-13 1.1200863516741548e-13 4.234746189697339e-14 1.4142391607786821e-14 4.2272141203196886e-15 1.1485524829652274e-15 2.908314809614419e-16 7.178261292689647e-17 1.8623287005598488e-17 5.601234354718198e-18 2.0998465113036463e-18 9.872585361047326e-19 5.621298992161021e-19 3.742335856281294e-19 2.842300754801009e-19 2.4224940399324845e-19 2.2914276711122573e-19 4.776987428388276e-08 0.029734040515984266 0.004101618071312107 0.00042359359182938324 3.869270951982384e-05 3.281078235243282e-06 2.6275136588684166e-07 1.9951494170736097e-08 1.432239377878121e-09 9.640037677133869e-11 6.0067536281868204e-12 3.4045702700325796e-13 1.7145041953036142e-14 7.430924253509163e-16 2.6504802580513835e-17 7.268853586044963e-19 1.3604412623408336e-20 1.3092904302633873e-22 8.511552258359251e-27 6.474808899445998e-31 5.86382532979232e-26 4.90099729319228e-20 6.453178834322098e-14 4.1697962073413e-14 2.210130585934997e-14 1.0097898233717102e-14 4.073695691976062e-15 1.4685224859964518e-15 4.772167007315031e-16 1.4145727515902672e-16 3.9090799857076586e-17 1.0497474981780901e-17 2.9407978126385427e-18 9.436478247710257e-19 3.727012777087854e-19 1.8290657542758183e-19 1.0794868656273252e-19 7.397196335519767e-20 5.738505437484655e-20 4.954502952449515e-20 4.7063929878095857e-20 4.8520786245167406e-08 0.030194141351866502 0.004330230742974228 0.0004656039401031179 4.4376921232333835e-05 3.938075809474551e-06 3.3126309901071357e-07 2.6539329518553298e-08 2.0201442059926507e-09 1.449672942379253e-10 9.685778958630942e-12 5.919705959242271e-13 3.230507495847009e-14 1.522807155718741e-15 5.914804555738992e-17 1.7612787190764538e-18 3.54331730047789e-20 3.5829882515407665e-22 2.7214034163719794e-26 1.9247706885378373e-30 3.683515449249073e-27 3.1305987423992893e-21 4.318188838318345e-15 2.8177701753250474e-15 1.564633396541401e-15 7.706969081375735e-16 3.417857650542497e-16 1.369591657733719e-16 4.9712792820050096e-17 1.6465946756889553e-17 5.0701940547349845e-18 1.5079540292190552e-18 4.630483592883206e-19 1.6048812319637723e-19 6.743881551339042e-20 3.48178799281858e-20 2.1434962612103193e-20 1.5194519557651324e-20 1.2083878778662107e-20 1.0592008544294933e-20 1.0111749838818531e-20 5.04795916455255e-08 0.031402814843177855 0.00477803542506925 0.0005462329947821553 5.551823931557529e-05 5.274034834557395e-06 4.771371048454261e-07 4.1338982579501487e-08 3.424380382038445e-09 2.6929585926769696e-10 1.9866678232172227e-11 1.3515206865061527e-12 8.278001185537966e-14 4.416105760596731e-15 1.956810632676151e-16 6.6954120986917525e-18 1.5570395867714905e-19 1.827149342840311e-21 1.4268302027610342e-25 1.0166667892031002e-29 1.6561908921195951e-28 1.4297328320028358e-22 2.0628800137528732e-16 1.3804125288654972e-16 8.337159935262504e-17 4.647396340430207e-17 2.3809146499139205e-17 1.1093470819072256e-17 4.672888445615075e-18 1.784990546519041e-18 6.285126668971117e-19 2.1151524334982578e-19 7.248234412729754e-20 2.754323061526502e-20 1.2463393167273982e-20 6.834018300790144e-21 4.4218295940743294e-21 3.2616886726014564e-21 2.670623728343119e-21 2.382827096973267e-21 2.288137324428283e-21 5.3550916972634236e-08 0.03329996454189048 0.00545632406115107 0.0006733711110464684 7.412440864491622e-05 7.658203071253039e-06 7.573291776009876e-07 7.215101843332629e-08 6.616926977488333e-09 5.805010903669006e-10 4.817795472531863e-11 3.720339664333747e-12 2.6110097002531315e-13 1.6114765655449504e-14 8.338846633387729e-16 3.361494285288615e-17 9.28138856964901e-19 1.3008186378370546e-20 1.0267329364422263e-24 7.333955848734976e-29 3.938234521604976e-30 3.445460817619086e-24 5.193663694953904e-18 3.73168517238545e-18 2.722710551760841e-18 1.930176232428236e-18 1.2637828759270896e-18 7.406488368263029e-19 3.839693028271922e-19 1.767079063691541e-19 7.35466856449264e-20 2.8743076881266635e-20 1.1227558907433313e-20 4.761564487795129e-21 2.3542849385701163e-21 1.3869316805256444e-21 9.517732389573715e-22 7.357523840550926e-22 6.234479634441195e-22 5.680206684104863e-22 5.492562344887362e-22 5.763254810635269e-08 0.035821115923829375 0.006382303828350186 0.0008585590308551182 0.00010336126931951981 1.1729472592933819e-05 1.28064749018237e-06 1.3554703182710115e-07 1.3910383875849115e-08 1.3768134892123404e-09 1.3010019059181812e-10 1.1552425762636479e-11 9.423039025306334e-13 6.833874795506286e-14 4.201243081274768e-15 2.033308957936722e-16 6.804409900414454e-18 1.16438259173504e-19 9.239590977816743e-24 6.588875928022305e-28 3.21369428578264e-31 2.353990208084889e-25 3.282134190382418e-19 8.15160288494853e-21 2.2307738751508292e-20 3.764805678733011e-20 4.283651632174332e-20 3.7382736330381896e-20 2.6368882386493265e-20 1.5581767465611035e-20 8.003271859721955e-21 3.74792909643122e-21 1.7104077746202933e-21 8.263640942075403e-22 4.541980756665279e-22 2.9150174880112777e-22 2.1452328058116896e-22 1.753126393771884e-22 1.5472470770805587e-22 1.445244775659564e-22 1.409217031446249e-22 6.260193782221205e-08 0.038889219800052464 0.007571861049480759 0.0011156995340286622 0.00014761642664423046 1.8488131266353798e-05 2.23981156882823e-06 2.6475485983855503e-07 3.057430638386773e-08 3.435428262519296e-09 3.722310172687819e-10 3.832484632907173e-11 3.668929207506419e-12 3.163350522077855e-13 2.3427078187318815e-14 1.383606044689338e-15 5.717022710016094e-17 1.2196376564886842e-18 9.699928912666205e-23 6.883523029216913e-27 1.3641854019009164e-28 1.1400007902017914e-22 1.5143066521051557e-16 6.69720603994115e-17 1.5545434716065316e-17 1.5619918343697144e-18 1.3355773983815635e-19 1.7298520757480126e-20 3.527517045168837e-21 1.4782141447102041e-21 8.377829186162121e-22 4.698454846895755e-22 2.551582172610516e-22 1.433408013877039e-22 8.926605145535158e-23 6.344478807378299e-23 5.0749960091879624e-23 4.432386379932797e-23 4.1078733094609994e-23 3.954277934182639e-23 3.895106608143167e-23 6.83038750139467e-08 0.04240716948814128 0.00903079428788376 0.0014586769368388423 0.00021224947455826426 2.936057859589707e-05 3.950162995024874e-06 5.219991483388966e-07 6.793445567519282e-08 8.684247648761073e-09 1.0822694533209447e-09 1.2978206201693704e-10 1.4674453279301778e-11 1.5173020673332167e-12 1.3693365003099074e-13 1.0015356971409279e-14 5.20293875630196e-16 1.4136860534136146e-17 1.1245284475482128e-21 7.916437874251084e-26 4.014662180826999e-27 3.3001953582813675e-21 4.169253540560773e-15 2.0265405470305933e-15 6.252801009279643e-16 1.2848917405085187e-16 1.6753290197506852e-17 2.019908473245638e-18 3.06938837498163e-19 4.8826435023698203e-20 8.026189796720654e-21 1.367826304466933e-21 2.531271639019712e-22 5.963932182550786e-23 2.321396558310748e-23 1.5050727364726406e-23 1.270998684573146e-23 1.1941925695788229e-23 1.1737566358938315e-23 1.1723798708905568e-23 1.1696331657365818e-23 7.453908103944077e-08 0.04625097550205202 0.01074488509122591 0.