# vtk DataFile Version 3.0
vtk output
ASCII
DATASET RECTILINEAR_GRID
DIMENSIONS 41 41 1
X_COORDINATES 41 double
0 1 2 3 4 5 6 7 8 9 10 11 12 13 14 15 16 17 18 19 20 21 22 23 24 25 26 27 28 29 30 31 32 33 34 35 36 37 38 39 40 
Y_COORDINATES 41 double
0 1 2 3 4 5 6 7 8 9 10 11 12 13 14 15 16 17 18 19 20 21 22 23 24 25 26 27 28 29 30 31 32 33 34 35 36 37 38 39 40 
Z_COORDINATES 1 double
0
POINT_DATA 1681
FIELD FieldData 1
Concentracao 1 1681 double
1.0 1.0 0.9999999999999999 0.9999999999999999 1.0 1.0 0.9999999999999999 0.9999999999999997 0.9999999999999993 0.999999999999999 0.9999999999999983 0.9999999999999982 0.999999999999998 0.9999999999999978 0.9999999999999974 0.9999999999999966 0.9999999999999523 0.9999999999984972 0.9999999999635548 0.9999999993330317 0.9999999905607134 0.9999998943497694 0.999999046672026 0.999992955152981 0.9999567602628693 0.9997773742100611 0.9990293594437728 0.9963890709178161 0.9884699626532636 0.9682453839343482 0.9242637051425062 0.8429947501668872 0.7159816592362921 0.5493553628457623 0.3679597734951759 0.20681593024373732 0.0928461620248144 0.03103367037597768 0.0068489585894510666 0.000753215732813848 2.314245272313821e-06 1.0 1.0 1.0 1.0 1.0000000000000004 1.0 0.9999999999999991 0.9999999999999991 0.9999999999999989 0.999999999999998 0.9999999999999983 0.9999999999999996 0.9999999999999989 0.9999999999999984 0.999999999999998 0.9999999999999958 0.9999999999999496 0.9999999999984229 0.9999999999619241 0.999999999306475 0.9999999902254348 0.9999998910180498 0.9999990201330827 0.9999927828575879 0.9999558343703747 0.9997732918109162 0.9990141643354109 0.9963415736911408 0.9883442482774958 0.9679642408557761 0.9237327011960583 0.8421498570124627 0.7148568095115982 0.5481201068769583 0.36685459620247846 0.20602995640068766 0.09241792556389172 0.030865224107258303 0.006806376632046806 0.0007479396126105057 2.29621817308518e-06 1.0 1.0 1.0 1.0 1.0 1.0 0.9999999999999992 0.9999999999999991 0.9999999999999989 0.9999999999999986 0.9999999999999982 0.9999999999999981 0.9999999999999977 0.9999999999999988 0.9999999999999983 0.9999999999999971 0.999999999999944 0.9999999999982603 0.9999999999584344 0.9999999992503061 0.999999989528826 0.9999998842182467 0.9999989669554905 0.9999924438956359 0.9999540596828245 0.9997655851569713 0.9989860619097686 0.996255272549628 0.9881206278966278 0.9674743544028882 0.9228269158978956 0.8407409911159778 0.7130272332654503 0.546153023013872 0.3651342615360392 0.20483625711994335 0.09178172479340248 0.03062084672302422 0.006745906161070035 0.0007405955693082882 2.271501564400505e-06 1.0000000000000002 1.0000000000000002 1.0 1.0 0.9999999999999998 0.9999999999999998 0.9999999999999993 0.9999999999999994 0.9999999999999993 0.9999999999999992 0.9999999999999993 0.9999999999999991 0.9999999999999982 0.9999999999999981 0.9999999999999988 0.9999999999999977 0.9999999999999363 0.9999999999979823 0.9999999999525209 0.9999999991566781 0.9999999883861678 0.999999873239536 0.9999988825564088 0.9999919149523525 0.9999513293217281 0.9997538700168276 0.9989439570500591 0.9961277897608549 0.9877949177754494 0.9667707829287383 0.9215434385826919 0.8387722390566333 0.7105044219782082 0.5434831404101378 0.3628337032514013 0.20326060813707308 0.0909556620143542 0.030308143987942196 0.006669495863451741 0.0007314294950794018 2.240842428090421e-06 1.0000000000000002 1.0000000000000002 0.9999999999999998 0.9999999999999999 0.9999999999999999 0.9999999999999997 0.9999999999999992 0.999999999999999 0.9999999999999992 0.9999999999999991 0.999999999999999 0.9999999999999987 0.9999999999999982 0.9999999999999977 0.9999999999999974 0.9999999999999963 0.9999999999999194 0.9999999999975256 0.9999999999431454 0.9999999990115861 0.9999999866551704 0.9999998569447995 0.9999987591963397 0.9999911556102383 0.9999474730954171 0.9997375682629603 0.9988862904201272 0.9959557296697581 0.9873610228301112 0.9658456622698361 0.9198779096771393 0.8362493183714445 0.7073113004437779 0.5401421766025247 0.3599909926059274 0.2013370744141638 0.08995905653088643 0.02993553071711826 0.006579431665373464 0.0007207447724155288 2.205101497761937e-06 1.0000000000000002 1.0 1.0 0.9999999999999997 0.9999999999999997 0.9999999999999994 0.9999999999999996 0.9999999999999993 0.9999999999999999 0.9999999999999988 0.9999999999999981 0.9999999999999972 0.999999999999997 0.9999999999999966 0.9999999999999951 0.999999999999994 0.9999999999998909 0.9999999999967903 0.9999999999285116 0.9999999987915968 0.9999999840992102 0.9999998334627386 0.999998585803351 0.9999901100228735 0.9999422629843475 0.9997159472239667 0.9988109999651154 0.9957346729235617 0.9868119653275705 0.9646912576049037 0.9178268929348875 0.8331820402438973 0.70347690891168 0.53617777706569 0.3566549375707943 0.19910668912911136 0.08881594795434071 0.029512574178010835 0.00647841756095108 0.0007088997575105129 2.165269228213083e-06 1.0000000000000002 0.9999999999999991 0.9999999999999991 0.9999999999999994 0.9999999999999992 0.9999999999999994 1.0 0.9999999999999994 0.9999999999999996 0.9999999999999994 0.9999999999999989 0.9999999999999983 0.999999999999997 0.9999999999999969 0.9999999999999964 0.9999999999999928 0.999999999999844 0.9999999999955853 0.9999999999054562 0.9999999984574546 0.999999980341983 0.9999997999733293 0.9999983452656592 0.9999886952391871 0.9999353830713429 0.9996879861014748 0.9987155492618361 0.9954593610353908 0.9861394637370453 0.9632993992455766 0.9153894848480718 0.8295873042296884 0.6990421987826247 0.5316508621578115 0.3528934579539815 0.19662180432897045 0.08755852409844976 0.02905292690667694 0.006369969088804826 0.0006963282023789966 2.122507619766214e-06 1.0000000000000002 0.9999999999999991 0.9999999999999991 0.9999999999999994 0.999999999999999 0.9999999999999994 0.9999999999999994 0.9999999999999992 0.9999999999999992 0.9999999999999993 1.0 0.9999999999999991 0.999999999999998 0.9999999999999981 0.9999999999999961 0.9999999999999905 0.9999999999997624 0.999999999993548 0.9999999998682843 0.9999999979419826 0.9999999747715955 0.9999997521229926 0.9999980124355764 0.9999867973061781 0.9999263970564342 0.999652373206186 0.9985966284263516 0.9951234021368173 0.9853342179591751 0.9616616099335091 0.912568354854592 0.8254886739233588 0.6940583665186235 0.5266340723129868 0.3487813761425273 0.19394322313257376 0.0862213429674812 0.02857122097961925 0.0062578126127476414 0.0006835010566406598 2.078072026798914e-06 0.9999999999999998 0.9999999999999989 0.9999999999999989 0.9999999999999994 0.9999999999999992 0.9999999999999997 0.9999999999999996 0.9999999999999991 0.9999999999999988 0.9999999999999983 0.9999999999999991 0.9999999999999988 0.9999999999999981 0.9999999999999981 0.9999999999999972 0.9999999999999861 0.9999999999996059 0.9999999999899458 0.9999999998064081 0.9999999971282196 0.9999999663857966 0.9999996830592084 0.9999975501864822 0.9999842513037371 0.9999147146747688 0.9996073967016437 0.9984502373389844 0.9947193042578111 0.9843861162974213 0.9597704184543526 0.9093683731026881 0.8209174944439083 0.688586983078534 0.5212114283231848 0.3444045074062567 0.1911345015467949 0.084841100841946 0.02808179961452193 0.006145753449553082 0.0006709098585103829 2.0332518621341227e-06 0.9999999999999992 0.9999999999999981 0.9999999999999987 0.9999999999999992 0.9999999999999992 0.9999999999999986 0.9999999999999993 0.9999999999999994 0.9999999999999984 0.9999999999999978 0.9999999999999983 0.9999999999999981 0.9999999999999974 0.9999999999999969 0.9999999999999962 0.9999999999999754 0.9999999999992912 0.9999999999832366 0.9999999996990622 0.9999999958024813 0.9999999534674872 0.9999995818414372 0.9999969025131977 0.9999808219503242 0.9998995293426141 0.9995507604596036 0.9982712859379638 0.9942383099170927 0.9832842547040574 0.9576202538268533 0.9058028765381309 0.8159197844646661 0.6827130945530674 0.5154911963400174 0.3398682510827617 0.18827608739634918 0.08346298517370909 0.027603218148985153 0.006038622523417987 0.0006591370412073605 1.9895206407498034e-06 0.999999999999999 0.9999999999999984 0.9999999999999982 0.9999999999999994 0.999999999999999 0.9999999999999982 0.9999999999999988 1.0 0.9999999999999991 0.9999999999999983 0.9999999999999978 0.9999999999999973 0.9999999999999969 0.9999999999999973 0.9999999999999954 0.9999999999999486 0.9999999999986022 0.9999999999699735 0.9999999995041173 0.9999999935671614 0.9999999330491647 0.9999994307721063 0.9999959834040132 0.9999761709244777 0.9998797566682937 0.999479659003849 0.9980537584402861 0.9936703648013059 0.9820172758225642 0.9552067587070777 0.9018894530589603 0.8105476904579948 0.6765249310134895 0.5095827522248283 0.335276780626534 0.18544633531054688 0.08213026223777922 0.027152801066361525 0.005940888993119311 0.0006487587532141472 1.948327298714126e-06 0.999999999999999 0.9999999999999997 0.999999999999998 0.9999999999999992 0.9999999999999987 0.9999999999999972 0.9999999999999983 0.9999999999999991 0.9999999999999988 0.9999999999999982 0.9999999999999973 0.9999999999999968 0.9999999999999961 0.9999999999999969 0.9999999999999933 0.9999999999998751 0.9999999999969588 0.9999999999418842 0.9999999991310513 0.9999999896444708 0.9999998998085466 0.999999200435076 0.9999946607760621 0.9999698105903093 0.999853912540232 0.9993903750628417 0.9977902493068462 0.9930042220716873 0.9805738222082779 0.9525291716430824 0.8976529776513127 0.8048665716702496 0.6701271289230682 0.5036149351869298 0.3307505682325869 0.18273082987481448 0.08089145866269305 0.026749812131704836 0.00585754125390412 0.0006403926565660882 1.9111814095003574e-06 0.9999999999999988 0.9999999999999988 0.9999999999999977 0.9999999999999982 0.9999999999999982 0.999999999999997 0.9999999999999971 0.999999999999998 0.9999999999999982 0.9999999999999973 0.9999999999999969 0.9999999999999961 0.9999999999999948 0.9999999999999946 0.9999999999999827 0.9999999999996391 0.9999999999925797 0.9999999998774295 0.9999999983731254 0.9999999824444243 0.9999998438676686 0.9999988406755742 0.999992725199606 0.999961019682382 0.9998199427975932 0.9992781446783653 0.9974718192714253 0.9922271548730134 0.9789427613099634 0.9495905791189514 0.893127990105606 0.7989538065087658 0.6636390358278801 0.4977249109629074 0.3264171271666558 0.18022166056657166 0.0797972941581842 0.026414226661250463 0.0057936415701494125 0.0006347095719649503 1.8796570028785373e-06 0.9999999999999988 0.999999999999999 0.999999999999999 0.9999999999999982 0.9999999999999978 0.9999999999999966 0.9999999999999968 0.999999999999998 0.999999999999998 0.9999999999999969 0.9999999999999973 0.9999999999999969 0.9999999999999946 0.9999999999999913 0.9999999999999224 0.9999999999987012 0.9999999999792147 0.9999999997147138 0.9999999967223859 0.9999999685377693 0.9999997461456047 0.9999982635148351 0.9999898396540838 0.9999487179669388 0.9997749771641493 0.9991366864080724 0.9970875327427723 0.9913249092301808 0.9771135433333561 0.946398025716257 0.8883571934048548 0.7928999315393236 0.6571924512531933 0.4920608934404407 0.3224087851098612 0.17801478954113872 0.07890065250330788 0.026167808698879795 0.005754978477890323 0.0006324511614106517 1.8554216724940837e-06 0.9999999999999984 0.9999999999999996 0.9999999999999988 0.9999999999999989 0.9999999999999974 0.9999999999999951 0.9999999999999963 0.9999999999999961 0.9999999999999971 0.9999999999999963 0.9999999999999954 0.999999999999993 0.9999999999999818 0.9999999999999191 0.9999999999994028 0.9999999999938826 0.9999999999307698 0.9999999992530051 0.9999999928202665 0.9999999400579418 0.9999995679908094 0.9999973091307004 0.9999854460574625 0.9999312685543675 0.9997150037319654 0.9989578324750112 0.9966240188686013 0.9902813356582506 0.9750763842169999 0.9429641930310777 0.8833929211619219 0.7868054445814995 0.6509302137995897 0.48678284944134886 0.31886799731425736 0.17621131107206708 0.07825823989283115 0.026034274960031665 0.005748028961680368 0.000634478078191587 1.8403052444275278e-06 0.9999999999999974 0.9999999999999972 0.9999999999999973 0.9999999999999977 0.9999999999999961 0.9999999999999938 0.9999999999999925 0.9999999999999898 0.9999999999999847 0.9999999999999729 0.9999999999999435 0.9999999999998639 0.9999999999996099 0.9999999999986215 0.9999999999936876 0.9999999999617412 0.9999999997164598 0.9999999977463436 0.9999999826514433 0.999999877550368 0.9999992269895959 0.9999956748462072 0.9999785900237067 0.9999061115592934 0.9996342030416859 0.9987305830213231 0.9960646131638254 0.9890778953815268 0.972821606013629 0.9393055855649494 0.8782958684988043 0.7807825988207867 0.6450032302537189 0.482054625339437 0.3159423978083144 0.17491847616976158 0.07793109469459743 0.026039372544585302 0.005780053984790024 0.0006418005973816029 1.836357500464415e-06 0.9999999999999482 0.9999999999999457 0.9999999999999386 0.9999999999999296 0.9999999999999114 0.9999999999998797 0.999999999999828 0.9999999999997384 0.9999999999995675 0.9999999999992237 0.9999999999984744 0.9999999999966965 0.9999999999919976 0.9999999999778397 0.9999999999274602 0.9999999997096795 0.9999999985817225 0.9999999920430581 0.9999999530538864 0.9999997290448499 0.9999985360004947 0.9999927611977327 0.9999675911694665 0.9998691509810518 0.9995240272240881 0.9984399538147627 0.995388024854445 0.9876922954762541 0.9703388573455437 0.9354420622614231 0.87313171444655 0.7749499400021226 0.6395702030093431 0.47804932249624166 0.3137865742195723 0.17425092989206 0.0779872308509666 0.026212776579479305 0.005859672055720864 0.0006556623971845155 1.8459654902938213e-06 0.9999999999983471 0.9999999999982667 0.9999999999980875 0.9999999999977841 0.9999999999972846 0.999999999996482 0.9999999999951675 0.9999999999929496 0.999999999989036 0.9999999999817648 0.9999999999674389 0.9999999999372398 0.999999999868377 0.9999999996960577 0.9999999992130988 0.9999999976623839 0.9999999918982566 0.9999999675796077 0.9999998568754173 0.9999993443974201 0.9999970429556705 0.9999873191562516 0.9999493460053793 0.9998135818799688 0.9993714855808027 0.9980648991228162 0.9945662108219383 0.9860968764036923 0.9676152367202344 0.9313944633991411 0.8679710466528842 0.769428409488843 0.6347922454657745 0.4749403571763813 0.31256009074354524 0.17433091048791594 0.07850126619413197 0.026589328885254487 0.005997417951599947 0.0006776424155490429 1.8720069082384386e-06 0.9999999999601674 0.9999999999584112 0.9999999999546321 0.9999999999482224 0.9999999999380601 0.9999999999222097 0.9999999998972638 0.9999999998571036 0.9999999997903795 0.9999999996748982 0.9999999994658086 0.9999999990672086 0.9999999982614316 0.9999999965179744 0.9999999924325398 0.9999999819061011 0.99999995168249 0.9999998548620411 0.9999995155635779 0.9999982630612209 0.9999935933476986 0.9999766175875515 0.9999179028295269 0.9997277099193956 0.9991562811240552 0.9975747901652785 0.9935608850037891 0.9842549430785728 0.9646317044903249 0.9271803221236925 0.8628814788950266 0.7643377625194749 0.6308278006283149 0.47290415525104973 0.3124288112377687 0.17529049271715233 0.07955976824127718 0.02721065449534497 0.006206627540537251 0.0007098076918595375 1.918072101850042e-06 0.9999999992759875 0.9999999992476636 0.9999999991873653 0.9999999990866977 0.9999999989306686 0.9999999986942149 0.9999999983354073 0.9999999977826259 0.9999999969114676 0.9999999954952673 0.9999999931137266 0.9999999889480783 0.9999999813331588 0.9999999667004394 0.9999999369282115 0.9999998721189072 0.999999719677254 0.9999993292493189 0.9999982438875198 0.9999950233514207 0.9999851111154061 0.9999544238955747 0.9998613856060897 0.9995906741680877 0.9988453416102944 0.9969237277909639 0.9923174947291564 0.9821147300692397 0.9613571621890843 0.9228071590034839 0.8579211314246288 0.7597872891035364 0.6278259591651875 0.47211372380993305 0.31356551645944164 0.1772777732092241 0.0812633674292307 0.02812832532004783 0.006504431994868116 0.0007549348418838737 1.9887679514600725e-06 0.999999989820357 0.9999999894662757 0.9999999887247205 0.9999999875057931 0.9999999856584332 0.9999999829315213 0.999999978926228 0.9999999729951322 0.9999999640801267 0.9999999503728182 0.9999999287576107 0.9999998936668716 0.9999998348119858 0.9999997324219736 0.9999995466954 0.9999991933867202 0.9999984827567661 0.9999969603814333 0.9999934751012612 0.9999849803265994 0.9999632461394927 0.9999061032289397 0.9997552790891402 0.9993640085037657 0.9983832713482745 0.9960397770331945 0.9907542321023943 0.9795994668672846 0.9577384846215262 0.9182625848545175 0.8531277606609523 0.755866122534184 0.6259209577605358 0.4727335036211286 0.31614907594806446 0.18045471675301766 0.08373145965534463 0.029407017638445592 0.0069134780162989325 0.0008168213013207395 2.0901451143656434e-06 0.9999998867782469 0.9999998832942887 0.9999998761156753 0.999999864494186 0.9999998472323957 0.9999998223592892 0.9999997869084347 0.9999997363073339 0.9999996633725583 0.9999995566611235 0.9999993977139399 0.9999991559464447 0.999998779404594 0.999998177348755 0.9999971857721123 0.9999954958656462 0.999992499981784 0.9999869407271793 0.999976087269325 0.9999537451937869 0.9999054384438282 0.9997969505640422 0.9995480345628787 0.998974952761459 0.9976742386353229 0.9948070542926251 0.9887465874113059 0.9765915098160899 0.9536852294237468 0.9134997485523407 0.8485056305231166 0.7526289843410829 0.6252168046875215 0.4749138054659468 0.3203606676865583 0.18500442715378015 0.08710797742586521 0.031128889594455283 0.007463889879103424 0.0009008072407835361 2.230337933989768e-06 0.9999989845198446 0.9999989570423924 0.9999989013636446 0.9999988126995563 0.9999986829584907 0.9999985005719321 0.9999982476674665 0.9999978980172675 0.9999974129715851 0.9999967343443933 0.9999957729861619 0.9999943923939449 0.9999923768115282 0.9999893803217406 0.9999848324970386 0.9999777623950414 0.9999664694808461 0.9999478301676353 0.9999158874883421 0.9998588161917417 0.9997523105546184 0.9995454260302823 0.9991307237058605 0.9982838967876639 0.9965488291387299 0.9930344700857365 0.9860955609696784 0.9729060582086934 0.9490451920177866 0.9084135349323177 0.8440023618483847 0.7500788263238025 0.6257745373903879 0.4787796877162115 0.32638213367599245 0.1911317887505777 0.0915679449205502 0.03340038047389156 0.00819687914576123 0.0010144810070310904 2.4204439026432177e-06 0.9999925395489218 0.9999923629259401 0.9999920109169667 0.9999914593928365 0.9999906664098768 0.9999895740473894 0.9999880962786885 0.9999861151043251 0.999983459973706 0.9999798880104909 0.9999750507425132 0.9999684472066256 0.9999593384483881 0.9999466212056125 0.999928629732786 0.9999027690489637 0.9998649047393218 0.9998081983925017 0.9997209509728581 0.9995823815765732 0.9993543125068504 0.9989647350098378 0.9982757412883182 0.9970228520635928 0.9947053434636144 0.9904003747080793 0.9824815768639423 0.9682479835395527 0.9435688288385791 0.902809437737626 0.8394816169853988 0.7481400376227958 0.6275899758314739 0.4844143136877214 0.33438694963798393 0.1990643878109257 0.09732373387343973 0.03635997818568498 0.009168743605849608 0.001168782842152033 2.6758005646092994e-06 0.9999544670558432 0.999953527247621 0.9999516993732952 0.9999488735521979 0.9999448744926364 0.9999394674490942 0.9999323272293367 0.9999230050454789 0.9999108945761491 0.9998951685073085 0.9998747169783426 0.9998480243821983 0.9998129980416148 0.9997667218383653 0.9997051329640113 0.9996223567401167 0.9995097949306421 0.9993544271552405 0.9991359844980908 0.9988215491967084 0.9983561495390838 0.997644905161107 0.9965203411698288 0.9946844472176304 0.9916074564491322 0.9863633139294109 0.977384873830909 0.9621457271570704 0.9368517866931999 0.8963563047218099 0.8346878907912307 0.74663101584665 0.6305747617198777 0.49184904289201326 0.3445371678385283 0.2090589240900983 0.10463981424532791 0.04019099224564648 0.010458964216510519 0.0013799427187469733 3.0179380599392368e-06 0.9997668429978747 0.999762742185891 0.999754870264036 0.9997428349900546 0.9997260455750663 0.9997037538218247 0.9996749164061839 0.9996381938969733 0.9995918400749604 0.9995335144203489 0.9994603649514641 0.9993686187482179 0.9992534522269357 0.9991085199967527 0.9989255956152064 0.9986936306612403 0.9983976203668077 0.9980165527100512 0.9975199316677358 0.9968621764484654 0.9959719925137999 0.9947347095834183 0.9929614375171217 0.9903343416111002 0.9863183139474668 0.9800156524245515 0.9699600712746231 0.9538416117357688 0.9282354491249133 0.888497517897317 0.8291529744009569 0.7451786800173231 0.6344675147623512 0.5009772038810538 0.35691390484238367 0.22135660522531764 0.11381425036491484 0.04512445127951866 0.012175754613937374 0.0016717056688311035 3.477216792800017e-06 0.9989887994099375 0.9989736926161142 0.998945226296732 0.9989022906413685 0.9988433058772124 0.9987661813629396 0.9986683465590179 0.9985464459142372 0.9983964299884949 0.9982131478066447 0.9979905266192849 0.9977211032159374 0.9973958896655777 0.9970039167269831 0.9965318090588131 0.995962941476279 0.9952761283588382 0.9944435311257493 0.9934272185592288 0.9921732243916873 0.9906006781034256 0.9885865935399497 0.9859343874654294 0.9823283267675015 0.9772546096486983 0.9698767362161519 0.9588634112470038 0.9421520913665947 0.9167021343886868 0.8783690081206916 0.8221530515217375 0.7431917874335645 0.6388345831306971 0.5115749115786083 0.3715445049499911 0.23621671008570067 0.1252167481934418 0.05147061545785603 0.014474913139555012 0.0020805750632782506 4.0970114577615735e-06 0.9962573709824346 0.9962106493509 0.9961239670581792 0.9959949353092369 0.9958201470690979 0.9955951620402338 0.9953146983609568 0.9949723347329994 0.9945605532558627 0.9940705717082716 0.9934923294238382 0.9928146007124814 0.992024715095088 0.9911085262270188 0.9900500584819527 0.9888310332514099 0.9874295230311402 0.9858183736064051 0.9839615732021493 0.9818082805857583 0.9792829874404496 0.9762698186853952 0.9725865032803938 0.9679415834216799 0.961868847438861 0.9536182428544998 0.9420166720751167 0.9252588796744609 0.9006862427019168 0.8646346857366674 0.8125508978884681 0.739717113181268 0.6429328355573516 0.5231612918619674 0.388286961727291 0.25384033279188717 0.13925852615832215 0.05962598272491225 0.017575463402721987 0.0026623193004973625 4.939719354440381e-06 0.9881083702741156 0.9879860308035427 0.9877633537374649 0.9874361701387362 0.9869984282251688 0.9864432102622709 0.9857622986176681 0.9849464707567673 0.983985720525589 0.9828692691148844 0.981585938521531 0.9801246093705087 0.9784744594590465 0.9766253366285758 0.9745679560607204 0.9722932461582677 0.9697915857830322 0.9670509398993316 0.9640532962959439 0.9607687793328777 0.9571457455513688 0.9530956076410724 0.9484685693711209 0.9430183538075075 0.936345112599113 0.9277964146356181 0.9163629672541351 0.9004896486833117 0.8778774511207358 0.8453059824858332 0.7986420573552316 0.7333083721772201 0.6455801445553914 0.5349004082926907 0.4067445998953225 0.2743053197016533 0.15637174911985 0.07009087914296167 0.02178736235182454 0.0035037032656084956 6.095445669740542e-06 0.9674051945676694 0.9671346004087098 0.9666510662534195 0.9659497259730038 0.9650229002135856 0.9638631045579654 0.9624624554175948 0.9608127951312517 0.9589070379168698 0.9567400432946798 0.9543079629497002 0.9516106308949678 0.9486518199639405 0.9454393497089189 0.9419867841690804 0.938311595304572 0.934434700219872 0.9303780830368468 0.9261605128578965 0.9217908460343027 0.9172581770894239 0.9125173614078707 0.9074653487615593 0.9019102736898457 0.8955245163337355 0.887756206063112 0.8777477143803033 0.864171107354573 0.8450469715527754 0.8175559582324667 0.777955259019083 0.7218244089477202 0.6449825823587608 0.5454167252228808 0.4260933922376106 0.2974420340948316 0.1769477499366153 0.08347629414743737 0.02754564673945232 0.004740933124802741 7.694137283626368e-06 0.9226138568372372 0.9221085211307551 0.9212225518984497 0.9199531500646994 0.9182963691575189 0.91624929464501 0.9138116271999401 0.9109867126439427 0.9077801594621294 0.904206108600257 0.9002830368875424 0.8960367653991383 0.891502858778829 0.8867250932094756 0.8817569262208217 0.8766602095796773 0.8715017866507397 0.8663534286470654 0.8612839404816173 0.8563526450316834 0.8515985611414408 0.8470273328673451 0.842588195026909 0.8381468141824865 0.8334503611303568 0.8280341617850892 0.8211792654525755 0.8117547568275518 0.7980635874985921 0.7776413760081243 0.7471123388836793 0.7022414175373913 0.6385021794300931 0.5525612066827117 0.44485627893892615 0.3226239891404722 0.201208316922989 0.1004807098950322 0.03545353485090983 0.006589514247293491 9.921988399108341e-06 0.8402677249144903 0.8394728709956341 0.8381076299955018 0.8361761073658507 0.833684604087312 0.8306436901952896 0.8270711327569213 0.8229914306836599 0.8184369380221681 0.8134546947152235 0.8080979274446535 0.8024330839095304 0.7965386355999231 0.7905062055399681 0.784437343608168 0.7784453305643501 0.7726496822260481 0.7671722756993313 0.7621337775229506 0.757644382269973 0.7537941715192015 0.7506389219192214 0.7481828514902211 0.7463519566999104 0.7449667966527799 0.743657159372075 0.7418357299409755 0.7385544298844068 0.7323732698024557 0.7211575870469066 0.7018876033217074 0.6705630223830027 0.622459735593513 0.553126106649532 0.46056185753229045 0.34845082929828675 0.22896779643635795 0.12180419108587148 0.046321602817585454 0.009391625595399668 1.3041724519564616e-05 0.7122141858756679 0.7111682571477798 0.7094123876695744 0.7069577634800861 0.7038278569332458 0.700052467669512 0.6956734167719963 0.6907428106982851 0.6853231751876078 0.6795004508923661 0.6733637824286148 0.6670186625837192 0.6605852445495516 0.6541960680101087 0.647994640196011 0.6421324807420701 0.6367688401836148 0.6320653658113954 0.6281810335508634 0.6252655221887018 0.6234537652162694 0.6228506557702148 0.6235183822885572 0.6254543171532431 0.6285721941882728 0.6326134055007068 0.6371480033247908 0.6414376689297863 0.6443061923193785 0.6439662572621823 0.6377855237188569 0.622085575431316 0.5921238855835325 0.542623485384073 0.46937179141026275 0.3722699552794611 0.25921052262786837 0.1479269645571987 0.06117856694941315 0.013687162229091616 1.7412384079354308e-05 0.5450525107974259 0.543917819005413 0.5420486168666148 0.5394731897648365 0.5362234889130262 0.5323476270703954 0.5279070664829462 0.5229749980897185 0.5176360102803249 0.5119987880667287 0.5061731598628162 0.5002883181649417 0.49448170747453424 0.48890175319038714 0.48370857573284787 0.4790661427671267 0.47514766003694453 0.47212667722105567 0.4701798371588997 0.46948048204235543 0.47019359334788924 0.47247028444835265 0.47643677884174207 0.48217786983939176 0.48972713800098816 0.4989808794466558 0.5097190916521906 0.5214658691149174 0.5333914627139515 0.5441275761871566 0.5515325624528775 0.5524037197559413 0.5422504301432193 0.5153717400601775 0.465769145595339 0.3895949614765642 0.2894128311768138 0.17864094457183638 0.0811845995278022 0.02031407490309061 2.349691787183704e-05 0.363963060786042 0.3629603208838258 0.36134228396144263 0.3591427782884792 0.3563997153347841 0.35316195237340325 0.3494974711138651 0.34548115917547434 0.3411988976656375 0.3367559736208881 0.3322565216431964 0.3278208689265603 0.323576338086184 0.31965503886036983 0.3161991825857633 0.3133561744532507 0.31128039581447964 0.3101312772204715 0.31007466051000016 0.31128346621011344 0.3139369067444198 0.31821679646899925 0.32430597681955514 0.33237939618629925 0.34260116335434865 0.35505526678902904 0.36977283668463007 0.38661683898801336 0.40519697033480684 0.42469706067807406 0.4436490906570273 0.4595904939143227 0.4686879977351028 0.4654186307124689 0.44275085866473246 0.3936049705813397 0.314602066047964 0.21214421065981448 0.10727738764447908 0.03051989956818963 3.1826655448474145e-05 0.20386921973865138 0.20316499459922055 0.20205421563624376 0.2005615718913134 0.19872072173967298 0.19657244472178517 0.19416884360637224 0.19157045005997425 0.18884058355087033 0.1860592836758104 0.18330459043707595 0.1806617215286395 0.17822237580816722 0.17608212631389059 0.1743416883289219 0.17310795859466208 0.1724952602180784 0.17262557183719066 0.17363079591630562 0.17565895492582495 0.17887209111931102 0.1834535787720508 0.18960882953726252 0.19756631338368635 0.20758406354494416 0.21990534610802834 0.2347923110974503 0.25245009060241486 0.2729620831559613 0.2961660610962509 0.32144500518344293 0.34740973586181934 0.371418706382476 0.3889915238738005 0.39329820997439513 0.3753818478242589 0.32639851475874737 0.24353584740088008 0.13922634149294655 0.045994360058706434 4.285805582771123e-05 0.0911845951633625 0.09080574780462809 0.0902201194968467 0.08944501358515963 0.08849939115124006 0.0874070082000821 0.08619973924275452 0.08491184277729188 0.0835797362147084 0.08224822642831497 0.08096028050833637 0.07976408759200683 0.07871003713343962 0.07785069657473308 0.07724246322253771 0.07694608447337994 0.07702928817961482 0.07756643687654871 0.0786438581345732 0.08036197221965491 0.08284000888649139 0.08622179381244247 0.09068233615674486 0.09643414521044658 0.10374203549578455 0.11290485575082085 0.12429360889162935 0.13832166139626195 0.1554245830399684 0.17599887861610147 0.20027387643773606 0.2280743329100885 0.25839771059773586 0.288734068664812 0.31411845918174786 0.3261586452175974 0.3130416597780195 0.26285446474368945 0.17351840873839242 0.0685001614068635 5.66051633493156e-05 0.030359389025383106 0.030212249069294452 0.02998979290013717 0.029699242926184928 0.029348812480127766 0.028947909467454302 0.028509996781695468 0.028049523870476607 0.027580680218867084 0.02712180992557094 0.026690074138936624 0.026304560493580813 0.02598507719865943 0.025753220068966427 0.02563253833920647 0.025648618827603307 0.02583097055954069 0.026214259366428638 0.02683992435236242 0.027759331533319834 0.029036928897830827 0.03075462508563424 0.033018586539259036 0.03596701702518871 0.03978294608821576 0.04469723454110065 0.05102011632814701 0.05914840357761834 0.06958336924029786 0.08293801794578842 0.09991458238146973 0.12121951853217035 0.14734307609802821 0.17809126848164467 0.21167829964804