# vtk DataFile Version 3.0
vtk output
ASCII
DATASET RECTILINEAR_GRID
DIMENSIONS 41 41 1
X_COORDINATES 41 double
0 1 2 3 4 5 6 7 8 9 10 11 12 13 14 15 16 17 18 19 20 21 22 23 24 25 26 27 28 29 30 31 32 33 34 35 36 37 38 39 40 
Y_COORDINATES 41 double
0 1 2 3 4 5 6 7 8 9 10 11 12 13 14 15 16 17 18 19 20 21 22 23 24 25 26 27 28 29 30 31 32 33 34 35 36 37 38 39 40 
Z_COORDINATES 1 double
0
POINT_DATA 1681
FIELD FieldData 1
Concentracao 1 1681 double
1.0 1.0 0.9999999999999999 0.9999999999999999 1.0 1.0 0.9999999999999999 0.9999999999999997 0.9999999999999993 0.999999999999999 0.9999999999999983 0.9999999999999982 0.999999999999998 0.9999999999999961 0.9999999999998717 0.999999999995255 0.9999999998772893 0.9999999977106326 0.9999999680770583 0.9999996571180623 0.999997092569531 0.9999801326966647 0.9998886801309022 0.9994811952398386 0.9979633559375324 0.9932007294757332 0.9805216954843681 0.951744261860726 0.8958992190723672 0.8031305058327397 0.6713076708466166 0.5115187865516584 0.3471424837661643 0.20479029836540763 0.10223310942054323 0.04180834620160245 0.01341121648029212 0.003160269854788852 0.0004868424710589124 3.709950984646762e-05 7.848223131810278e-08 1.0 1.0 1.0 1.0 1.0000000000000004 1.0 0.9999999999999991 0.9999999999999991 0.9999999999999989 0.999999999999998 0.9999999999999983 0.9999999999999996 0.9999999999999989 0.9999999999999967 0.999999999999864 0.9999999999949627 0.9999999998704898 0.9999999975966233 0.9999999666516746 0.9999996435347879 0.9999969904150885 0.999979517015601 0.9998856587448043 0.9994689514210005 0.9979218594258991 0.9930836038600439 0.9802409524497943 0.9511741912976855 0.8949133693489132 0.8016811932348172 0.6694992486608873 0.5096106057351487 0.3454524033783944 0.20355058801777862 0.1014907494571698 0.041454336373494605 0.013281694007666864 0.003126036391630701 0.00048101646421878826 3.661376747097923e-05 7.736684889535252e-08 1.0 1.0 1.0 1.0 1.0 1.0 0.9999999999999992 0.9999999999999991 0.9999999999999989 0.9999999999999986 0.9999999999999982 0.9999999999999981 0.9999999999999977 0.9999999999999966 0.9999999999998436 0.999999999994308 0.999999999855484 0.9999999973496141 0.9999999636190999 0.9999996150162884 0.9999967796939172 0.9999782694327929 0.9998796466774131 0.9994450235615698 0.9978426400306348 0.9928635962830988 0.9797237181771148 0.9501420255156992 0.8931628867552361 0.7991563167735888 0.6664089914895559 0.5064145849153967 0.342681227560252 0.20155576993482968 0.10031929880867863 0.04090697718834466 0.013085138218539252 0.003075084078575655 0.0004724981922434811 3.591542465804343e-05 7.578547600167012e-08 1.0000000000000002 1.0000000000000002 1.0 1.0 0.9999999999999998 0.9999999999999998 0.9999999999999993 0.9999999999999994 0.9999999999999993 0.9999999999999992 0.9999999999999993 0.9999999999999991 0.9999999999999982 0.9999999999999951 0.9999999999998072 0.9999999999931264 0.9999999998290692 0.9999999969235442 0.9999999584905706 0.9999995676385711 0.9999964354093606 0.999976263793803 0.9998701442049087 0.9994078311827832 0.9977212745212427 0.99253080582337 0.978952320479618 0.9486238187281294 0.8906228723660002 0.7955414291072556 0.6620410715860944 0.5019550622759138 0.33886177750842134 0.19884363031234492 0.09874703195101706 0.04018079126036446 0.012827825307454946 0.0030091859722047106 0.0004615992842571076 3.5031219184453746e-05 7.379733126599077e-08 1.0000000000000002 1.0000000000000002 0.9999999999999998 0.9999999999999999 0.9999999999999999 0.9999999999999997 0.9999999999999992 0.999999999999999 0.9999999999999992 0.9999999999999991 0.999999999999999 0.9999999999999987 0.9999999999999982 0.9999999999999936 0.9999999999997415 0.9999999999910955 0.9999999997849827 0.9999999962320293 0.9999999503781964 0.999999494432333 0.9999959155522603 0.9999732981793501 0.9998563231753368 0.999354697396131 0.9975507375135344 0.9920702738751389 0.9779013769211004 0.9465853140961121 0.8872569889896835 0.7908122035303268 0.6563985242690904 0.49626275415989324 0.33404269890428606 0.19545791796615053 0.09680595597393868 0.03929370697302009 0.01251665837460156 0.002930304133910674 0.00044867227328162005 3.39920177954408e-05 7.146826727005277e-08 1.0000000000000002 1.0 1.0 0.9999999999999997 0.9999999999999997 0.9999999999999994 0.9999999999999996 0.9999999999999993 0.9999999999999999 0.9999999999999988 0.9999999999999981 0.9999999999999972 0.999999999999997 0.99999999999999 0.9999999999996226 0.9999999999875681 0.9999999997114282 0.9999999951186803 0.9999999377458089 0.9999993837971684 0.999995150974016 0.9999690439607549 0.9998369883383456 0.999281928071054 0.9973216824963902 0.9914631846366325 0.9765382709389575 0.9439833700450428 0.8830251017685017 0.784948279298673 0.6494923946870504 0.4893811867994269 0.3282845007637557 0.19145693126675745 0.09453528954975231 0.03826670383114285 0.01215977407171063 0.0028406245737384156 0.00043411376903240576 3.2832241915385165e-05 6.887039137063293e-08 1.0000000000000002 0.9999999999999991 0.9999999999999991 0.9999999999999994 0.9999999999999992 0.9999999999999994 1.0 0.9999999999999994 0.9999999999999996 0.9999999999999994 0.9999999999999989 0.9999999999999983 0.999999999999997 0.9999999999999851 0.9999999999993979 0.9999999999812033 0.9999999995853063 0.9999999932958583 0.9999999178969204 0.9999992163872795 0.9999940323434974 0.9999630093350629 0.9998103234132755 0.9991840993051423 0.9970212130996587 0.9906836585126466 0.9748228425403929 0.9407673624993126 0.8778811488438597 0.7779307429505006 0.6413444251150803 0.48137018801407866 0.32166434999445603 0.18691067890935403 0.09198399932450918 0.03712465740037468 0.011767013593362591 0.002742880487307957 0.0004183929311397122 3.1590653631565994e-05 6.608282499459321e-08 1.0000000000000002 0.9999999999999991 0.9999999999999991 0.9999999999999994 0.999999999999999 0.9999999999999994 0.9999999999999994 0.9999999999999992 0.9999999999999992 0.9999999999999993 1.0 0.9999999999999991 0.999999999999998 0.999999999999974 0.9999999999989343 0.9999999999690428 0.9999999993594071 0.9999999902133632 0.999999885993773 0.9999989592945394 0.9999923831746698 0.999954440960774 0.9997736880750844 0.999053825239718 0.9966318488216676 0.989698862705758 0.9727037971198925 0.9368766382430102 0.8717746876864356 0.7697426437699959 0.6319885493233357 0.4723035708804384 0.3142721962428934 0.18189793901823817 0.08920401129061586 0.03589451933739794 0.011348456803694333 0.002639834577662255 0.00040197744927992205 3.0306245116779525e-05 6.318494852411539e-08 0.9999999999999998 0.9999999999999989 0.9999999999999989 0.9999999999999994 0.9999999999999992 0.9999999999999997 0.9999999999999996 0.9999999999999991 0.9999999999999988 0.9999999999999983 0.9999999999999991 0.9999999999999988 0.9999999999999978 0.9999999999999437 0.9999999999978906 0.9999999999440812 0.999999998931772 0.99999998477344 0.9999998330837909 0.9999985555971024 0.9999899167815451 0.9999421670777201 0.9997232256553704 0.9988805847629504 0.9961302506629222 0.9884665927538726 0.9701199750057791 0.9322415798563861 0.8646525367568486 0.7603735637411418 0.6214667802365861 0.46226840991997575 0.30620830117130643 0.1765037684123004 0.08625066875351263 0.03460308182439578 0.010914111904285788 0.0025340630092952465 0.0003853097218087337 2.901613528601122e-05 6.025164667938947e-08 0.9999999999999992 0.9999999999999981 0.9999999999999987 0.9999999999999992 0.9999999999999992 0.9999999999999986 0.9999999999999993 0.9999999999999994 0.9999999999999984 0.9999999999999978 0.9999999999999983 0.9999999999999981 0.9999999999999956 0.9999999999998548 0.999999999995252 0.9999999998881786 0.9999999980655617 0.9999999746614268 0.9999997417204826 0.9999979022236951 0.9999861473286578 0.9999243389542196 0.9996531967019282 0.9986496129370798 0.9954851342296208 0.986931640647703 0.9669951853992701 0.9267824468848184 0.8564596837542926 0.7498234902775534 0.6098446304419872 0.4513766395476263 0.2975969139579918 0.17082860422476298 0.08318680563230794 0.03328122623122661 0.010475252399710843 0.002428562223404329 0.0003688964140554092 2.7760563912083673e-05 5.7361301591740215e-08 0.999999999999999 0.9999999999999984 0.9999999999999982 0.9999999999999994 0.999999999999999 0.9999999999999982 0.9999999999999988 1.0 0.9999999999999991 0.9999999999999983 0.9999999999999978 0.9999999999999973 0.9999999999999859 0.9999999999995446 0.9999999999876302 0.999999999749671 0.9999999961708778 0.9999999547206609 0.999999576783676 0.999996809441453 0.9999802464912851 0.9998980115372847 0.9995549432447643 0.9983400374682022 0.9946551343436223 0.985027570271984 0.9632415022719094 0.9204100298131481 0.8471402850925642 0.7380971189912657 0.5971946574360494 0.43974364823081413 0.28855771434539135 0.1649662638959021 0.080069549797758 0.03195636743824091 0.010041650790816795 0.0023258460223421554 0.00035315434506505986 2.6574177998258202e-05 5.458157064785221e-08 0.999999999999999 0.9999999999999997 0.999999999999998 0.9999999999999992 0.9999999999999987 0.9999999999999972 0.9999999999999983 0.9999999999999991 0.9999999999999988 0.9999999999999982 0.9999999999999973 0.9999999999999941 0.9999999999999195 0.9999999999981426 0.9999999999615945 0.9999999993628655 0.9999999916435204 0.9999999127044239 0.9999992638006467 0.9999949119874886 0.9999707549323862 0.9998583853148721 0.9994154391580435 0.9979224402225069 0.9935849974805948 0.9826685782282123 0.9587531331685144 0.9130270064942294 0.8366412646105355 0.7252134944095616 0.5836050652141462 0.4275001588758082 0.2792205390173885 0.15901729101071357 0.07695895330512231 0.030655855363771273 0.009623171426314301 0.00222842205440735 0.0003384984539825524 2.5489988048583745e-05 5.197490629923539e-08 0.9999999999999988 0.9999999999999988 0.9999999999999977 0.9999999999999982 0.9999999999999982 0.999999999999997 0.9999999999999971 0.999999999999998 0.9999999999999977 0.999999999999995 0.9999999999999845 0.9999999999999153 0.9999999999992099 0.9999999999895636 0.9999999998527405 0.9999999981202343 0.9999999796757602 0.9999998173669636 0.999998636448779 0.9999914809239482 0.9999550314488891 0.9997974897613553 0.9992145862073797 0.9973544925786535 0.9922003616525759 0.9797476713272087 0.953405935472969 0.9045261623477967 0.8249125287460545 0.7112039840073239 0.5691810119617534 0.4147863643483798 0.269719770706615 0.15307921409139488 0.07391226657737208 0.02940596982681462 0.009228981923112004 0.002138583379272902 0.0003252971727477851 2.4539141957225475e-05 4.959777492411928e-08 0.9999999999999969 0.9999999999999963 0.9999999999999962 0.9999999999999946 0.999999999999993 0.999999999999989 0.9999999999999831 0.9999999999999706 0.999999999999937 0.9999999999998386 0.999999999999499 0.9999999999980025 0.9999999999891621 0.999999999920057 0.999999999288086 0.9999999934621088 0.9999999443524964 0.9999995830010056 0.9999973026089276 0.9999850036065123 0.9999281603846664 0.9997018439040849 0.9989211877438021 0.9965750795442986 0.9904010022334698 0.9761286727058602 0.9470527581451411 0.8947906834303845 0.8119082114849981 0.6961104917261333 0.5540373962459906 0.4017497009296301 0.26018945341853755 0.14724686841110166 0.07098264960057842 0.02823090845742784 0.008867473130859572 0.002058516100989494 0.00031392167956234915 2.3751947375083198e-05 4.750195695919476e-08 0.999999999999856 0.9999999999998468 0.9999999999998238 0.999999999999783 0.9999999999997092 0.9999999999995768 0.9999999999993265 0.9999999999988111 0.9999999999976558 0.9999999999947553 0.999999999986458 0.9999999999585554 0.9999999998445065 0.9999999992688513 0.9999999958133734 0.9999999732781332 0.9999998278696143 0.999998957411291 0.9999942898509494 0.9999722244248942 0.9998807373701251 0.999548208211452 0.9984860856756446 0.9954958711014669 0.9880531106858075 0.9716424281003418 0.9395215257676376 0.8836931918119661 0.7975871211800288 0.6799887382683475 0.5382994130624237 0.38853748033062036 0.25075973996022194 0.14161134676874568 0.06822086306046095 0.027153134000686665 0.00854654473573256 0.0019903118258261607 0.0003047385186327343 2.315994931672461e-05 4.5737147006845686e-08 0.9999999999946932 0.9999999999943705 0.9999999999936448 0.9999999999923342 0.9999999999900847 0.9999999999861827 0.999999999979158 0.9999999999657759 0.9999999999384175 0.9999999998774866 0.9999999997276956 0.9999999993139894 0.9999999980051482 0.9999999931926525 0.9999999727622024 0.9999998766374425 0.9999994064931889 0.9999971569417899 0.9999870795648697 0.9999458905107242 0.9997943869825431 0.9992958290807605 0.9978308787174661 0.9939873262633385 0.9849739785368232 0.9660737166607162 0.9306089288180754 0.8710942800577649 0.7819093185995856 0.6628994979016812 0.5220957839124277 0.3752964673583031 0.24155254402293927 0.13625445473664852 0.06567262444752173 0.026193419053405533 0.008273642227366377 0.0019359728662750294 0.0002981155250655377 2.2797069341122754e-05 4.4352780335381474e-08 0.9999999998639567 0.9999999998565403 0.9999999998400891 0.9999999998111049 0.9999999997627568 0.9999999996822018 0.9999999995443574 0.9999999992981453 0.9999999988337546 0.9999999978975997 0.9999999958628882 0.9999999910417977 0.9999999784379004 0.9999999417474723 0.9999998226252609 0.9999993981713465 0.9999977966327163 0.9999916799863359 0.9999689758864047 0.9998895311621185 0.9996325320973294 0.9988725000737416 0.9968303745440836 0.9918597722478791 0.9809164657659859 0.9591512183127552 0.9200733874018964 0.8568366185559754 0.7648326038117509 0.6449054207080142 0.5055494495916143 0.3621633579948324 0.23268082541005541 0.1312520538247829 0.06337983232602308 0.02537130149637462 0.008056240143407797 0.001897630167143811 0.0002944644281703291 2.27034896400431e-05 4.340260124245269e-08 0.9999999974831714 0.9999999973603251 0.9999999970923287 0.9999999966294358 0.9999999958783806 0.9999999946706035 0.9999999926968685 0.9999999893676164 0.999999983511441 0.9999999726709874 0.9999999514065759 0.9999999069007346 0.9999998067599968 0.999999563093383 0.9999989202496882 0.9999970924602756 0.9999915939862906 0.9999745805624493 0.9999221203812021 0.999765457895681 0.9993220030432082 0.9981496612176383 0.9952825468530817 0.9888335801030356 0.9755436602124551 0.9505304328854366 0.9076258579700471 0.8407421959715884 0.7463075309082541 0.6260636013139251 0.48877652129412086 0.3492584545617855 0.2242423907012012 0.1266686567836387 0.061379654465324715 0.024705148294287303 0.007901760878694701 0.0018776593947709645 0.0002942784197292326 2.2930122514083038e-05 4.294982029037706e-08 0.9999999651843339 0.9999999636667269 0.9999999604098447 0.9999999548912519 0.9999999461617337 0.9999999325814312 0.9999999112784465 0.9999998771159648 0.9999998206238631 0.9999997234283277 0.9999995487444578 0.9999992190709638 0.9999985626197683 0.999997177809252 0.9999940777194002 0.9999867287431586 0.9999684476356562 0.999921519065328 0.9997998672268782 0.9994885574424874 0.9987177058605244 0.9968999560978499 0.9928645364040546 0.98449937562792 0.9684001994105689 0.9397730211991587 0.8929189643988007 0.8226015042153451 0.7262667327925335 0.6064139182464773 0.471869547939157 0.33668156822930345 0.2163171517589955 0.1225594171381897 0.059705521007906166 0.02421287776449393 0.007818460813077278 0.001878850549400636 0.0002981878851209211 2.3544969895035064e-05 4.3074657655742395e-08 0.9999996288722307 0.9999996145824838 0.9999995842584042 0.9999995337478021 0.999999455670373 0.9999993377557654 0.9999991595827994 0.9999988865077621 0.9999984588113098 0.9999977687684819 0.9999966190188238 0.9999946316393493 0.9999910570214476 0.9999843501109691 0.9999712093256267 0.999944331381378 0.9998872393567713 0.9997624345565294 0.999485575065692 0.9988722294685727 0.9975378071787803 0.9947275256858323 0.98906679465863 0.9782633746109652 0.9588696984027976 0.9263260304654825 0.8755314747138052 0.8021602872571257 0.7046132606044837 0.5859667624477899 0.4548897059020763 0.32450209614253045 0.2089625298886645 0.11896790509980612 0.058387608404041696 0.023913525922722837 0.007815810717905373 0.0019047253293342178 0.00030702543837372084 2.4642684937598855e-05 4.388458156344556e-08 0.9999968757098879 0.9999967695088424 0.9999965476267813 0.9999961838635647 0.9999956341480223 0.9999948259672998 0.9999936448856829 0.9999919066156667 0.9999893127195761 0.9999853590929724 0.9999791897809952 0.9999693035585006 0.999952997037199 0.9999252662626117 0.9998765925779649 0.9997884839089043 0.999624326547546 0.9993112147895007 0.9987051004209607 0.9975268690355817 0.9952550592005606 0.9909625194411122 0.9831013138361921 0.9692795605550406 0.946135822125685 0.9094894818597733 0.854944493073024 0.7791043148492165 0.681202857226628 0.5646867541264041 0.4378516944339503 0.3127507433128689 0.2022115975643618 0.11592421529807138 0.057453324670021094 0.023826973074625692 0.007905168234400366 0.0019598515607220828 0.00032193793847518624 2.635796536835751e-05 4.552825566240824e-08 0.9999787976479712 0.9999781650914453 0.9999768640097826 0.9999747633820355 0.9999716533075516 0.999967192005825 0.9999608688914189 0.9999519034632967 0.9999390848013711 0.9999205079464715 0.9998931489334678 0.9998520984010492 0.9997892373566611 0.999690895179012 0.9995336145219313 0.9992764485049331 0.9988471632507064 0.9981176385495409 0.9968619905722682 0.9946877770076927 0.99093174332542 0.9845178156349103 0.973792219533773 0.9563750761903371 0.9291349755242978 0.8883958097296194 0.8305427532001882 0.7530462434961163 0.6558278089157756 0.5424780711926455 0.42071417641240616 0.3014095754065635 0.19606361576310635 0.11344392193501945 0.05692624196499891 0.023975581568503358 0.00810071036214636 0.0020502824321392884 0.00034451780277583205 2.888866522386326e-05 4.8217630076429646e-08 0.9998819823887457 0.9998789145939583 0.9998727040643482 0.9998628366309387 0.9998484582284168 0.9998283367807099 0.999800600889065 0.9997625351310624 0.999710182431221 0.9996376683420715 0.9995361567189465 0.9993923982734467 0.9991860200708738 0.9988855166672452 0.9984414297830619 0.9977751697800555 0.9967616917079599 0.9951998128391663 0.9927688307985765 0.9889635107060845 0.9830032727329464 0.9737235616396839 0.9594623301432423 0.9379849159747633 0.9065221260729958 0.8619996935323838 0.801579536569165 0.7235110865575098 0.6281984522657941 0.5191614023995046 0.4033579578213576 0.2904015812300368 0.19047983684528733 0.11152377472619562 0.056826256681461185 0.024384576621545435 0.008420429287538006 0.002184243921645316 0.0003770483493262674 3.252833795323517e-05 5.225895973814041e-08 0.9994534588399395 0.9994411723404212 0.9994166859398428 0.9993783891561416 0.9993235438266834 0.9992483729038325 0.9991473299238128 0.9990128760320579 0.998834288915735 0.9985965529710362 0.9982784954283257 0.997850360580916 0.9972694543159965 0.9964743201253677 0.9953764162942339 0.9938462719904164 0.9916948546807235 0.9886441402395366 0.9842878942512802 0.9780376713554744 0.969055609188437 0.9561800813180139 0.9378598210380588 0.9121305875857199 0.8766828339031708 0.8290770907145736 0.7672021846340908 0.6899281459161746 0.5979360470709609 0.4944658206250069 0.38557747974980716 0.2795772050915549 0.18537224539989602 0.11013553298194606 0.05716676262642662 0.025082126191009815 0.008887090865367113 0.002372963202079429 0.00042279628158683867 3.771964586472696e-05 5.8100399592510104e-08 0.9978675168762988 0.997826358041583 0.9977460485649708 0.9976221145306543 0.9974474293592589 0.997212514224792 0.9969042867876718 0.9965050281609545 0.9959911168938682 0.9953309394676714 0.9944827942954538 0.9933911061343642 0.9919812552770674 0.9901529188522948 0.9877725230346824 0.9846580846070393 0.9805639979834115 0.9751560366157146 0.9679831147673061 0.9584350825424949 0.9457040817858288 0.9287370537120925 0.9062007136651314 0.8764916760973634 0.8378009805789057 0.788298999612146 0.726478522025727 0.6516515627325776 0.5645731566795645 0.4680226593537673 0.3670768050802797 0.2687103009362367 0.18060124002972636 0.10922439429372292 0.057954475229434706 0.026101052315626046 0.009530568822242274 0.0026320777954285893 0.0004866111354873783 4.515245822786011e-05 6.641164374000331e-08 0.9929223476987337 0.9928075747531471 0.992586633698707 0.9922495871915645 0.9917813936382407 0.9911631425684618 0.9903687826483412 0.9893652904240959 0.9881102572569723 0.9865482398763132 0.9846127143724993 0.9822178790405 0.9792569802954827 0.9755943973641716 0.9710620660238551 0.9654465167893143 0.9584790943498099 0.9498190998529014 0.93903332628916 0.9255754447348638 0.9087534843232775 0.8877089106086966 0.8614055653090981 0.8286270521204431 0.7880481240235486 0.7383449498646836 0.678468323094506 0.6079812821654238 0.5275351013179189 0.43933346061267453 0.3474122819504241 0.2574462171300371 0.17592455395083897 0.10866911015753303 0.059164887267198034 0.027467425035480202 0.010384637681472807 0.002981941014338716 0.0005753707557673618 5.5882941834265354e-05 7.819001820684473e-08 0.9798377846805869 0.9795659601159749 0.9790514041539295 0.9782765193198739 0.9772160329940777 0.9758374357755856 0.9741006859596475 0.9719545972503033 0.9693382196875214 0.9661756105517846 0.9623793602529873 0.9578444231653047 0.9524477676256458 0.946043795149656 0.9384625658672963 0.9295035756031257 0.9189288200178745 0.9064536756946712 0.8917360425462637 0.8743607652190271 0.8538155618612245 0.8294919653950351 0.8006493938369885 0.7664395621184988 0.7259311965917815 0.6781793471339453 0.622423379734055 0.5583174341855305 0.48627408271686184 0.4078591726549158 0.32607713196857074 0.24535237857611 0.17103358924982598 0.10830502597741365 0.06075530329590915 0.029209217061920884 0.011493319646784437 0.003451337904875323 0.000699518906901787 7.162547893274053e-05 9.496038510456205e-08 0.9503174697985597 0.9497722147323833 0.9487550771421138 0.9472424368920135 0.945200582613393 0.9425869875815148 0.9393517308422129 0.9354349414568115 0.9307679591230074 0.9252721242154491 0.9188596232313418 0.9114348419916034 0.9028926270549781 0.8931186281394345 0.8819883666271492 0.8693657785581792 0.8550972989842208 0.8390090678349322 0.8208960192617647 0.8005085063780991 0.7775368355985448 0.7515978359130411 0.7222198029781544 0.6888336920605956 0.6507926149732262 0.6073914295025542 0.5580196951851021 0.5022943657888209 0.44032794077641874 0.37304745197068223 0.302479168455473 0.231879403692251 0.16550308940945588 0.10787205229795174 0.06262751451797936 0.031337078522983314 0.012905480648215381 0.004078433533682732 0.0008744716868604755 9.51478732918483e-05 1.1906897338470597e-07 0.8933665712134724 0.8924351408588117 0.8907265998128826 0.8882166165178094 0.8848699586204692 0.8806478254989913 0.875505616455048 0.8693944919033006 0.8622630814710424 0.8540582663777034 0.8447263901558615 0.8342167637459914 0.8224818847354991 0.8094786610194713 0.7951688261333354 0.7795154495396198 0.7624793808954712 0.7440141734818647 0.7240553527613548 0.7025086471471395 0.6792321529938901 0.6540200305242186 0.626583740248335 0.596544546549053 0.5634332126873408 0.5266706075113795 0.485700847036127 0.44004890298969335 0.3895241180927463 0.3344671945437721 0.2760339638318488 0.2164085768183528 0.1587933241059141 0.107002693692895 0.06460884872944218 0.03382988762498052 0.014670996949900424 0.004913051809079712 0.0011231595561355548 0.0001310138205113089 1.5415714607593295e-07 0.7993054429042535 0.7979531035750491 0.795512515469775 0.7919698055494512 0.7873021695790043 0.7814911112642293 0.7745197396614003 0.7663732287015078 0.7570434453967378 0.746532605758062 0.7348477861371804 0.7220104069564154 0.7080541807668727 0.6930232682757476 0.6769755266491764 0.6599736762263425 0.6420821031287122 0.6233593915741387 0.603846673804519 0.5835553258768043 0.5624507094456849 0.5404374439176479 0.5173363019611107 0.4928758494706402 0.46668596952523916 0.43826522170350823 0.4070693061581836 0.3725373761087913 0.3342258905189671 0.2920001791103477 0.24628311972484365 0.198310329615241 0.15027363199059415 0.10520082623607957 0.06641597939646807 0.03660774803363604 0.01682947596753153 0.006017530779429579 0.00147938621927212 0.0001868343479981295 2.0589579913155953e-07 0.6664029896378443 0.6647367815748924 0.6617789860910094 0.6575338889726685 0.6520060011343789 0.6452082034588142 0.6371642097309496 0.6279099553405981 0.6174894850140432 0.6059701215742708 0.5934262547619916 0.5799477172442558 0.5656411012617599 0.5506225047231667 0.5350180733938202 0.5189572293988927 0.5025633844461349 0.48595291376109767 0.4692185083831952 0.4524213805557717 0.4355762615686377 0.41864182661073773 0.40149891358963485 0.3839418597255443 0.3656742999167942 0.3462514282593391 0.32516398493259757 0.301815195360379 0.275613115428336 0.24608833764423177 0.2131006194338582 0.1770829317609423 0.13927994581353115 0.10184666246397568 0.06762541279963896 0.03949283201607617 0.019387850759648675 0.007463605931293689 0.001992201272028073 0.00027541380844795134 2.830988972291035e-07 0.5062040507106516 0.5044682303778731 0.5014397121581949 0.4971421326912099 0.4916070745477362 0.4848792766229773 0.47701984397883357 0.46810382878216217 0.4582195002373093 0.44747964169471816 0.4360004870241044 0.42391333955011185 0.4113587632334444 0.39848435158001344 0.38543739318942977 0.3723644797558836 0.3594020259631399 0.3466700487699257 0.33426810646559113 0.32226545060701123 0.3106928181532823 0.299532520035165 0.28870801379499567 0.278070381183056 0.2673941423666053 0.25632511329068086 0.24443049907015288 0.23115942298467193 0.2158896583857331 0.1979852879690125 0.17693497342795692 0.15255453140464706 0.12524848938779515 0.09624254835652699 0.06765014645456568 0.04216156379580636 0.02228181514545465 0.009320735105590082 0.0027301518728017064 0.0004183460671065109 3.9931185038297926e-07 0.3423124896109597 0.3407947168103529 0.3381955125293298 0.3345462741730111 0.3298956747717332 0.3243045509913852 0.31785042088431764 0.3106235243073925 0.3027243729089688 0.2942771096481908 0.28540138511613466 0.27622680996897814 0.26688742060175524 0.2575168301369564 0.24824471290373049 0.2391925231576012 0.23047278132629276 0.22218298414969903 0.214402884056481 0.20718995854489125 0.20057757055689757 0.1945655643333371 0.18911605126895886 0.18414215901409958 0.17950560477568106 0.17496555728125385 0.17021461807540705 0.16482811268396744 0.15826567306589823 0.149894023338708 0.1390437036673328 0.12514242063841033 0.10793004245501278 0.08774238619753198 0.06576912614193342 0.044096123225751634 0.02531544035425376 0.01162674832319033 0.003782595685595534 0.0006517008111632519 5.747785389538349e-07 0.20115090781218442 0.20005217026141547 0.19820045094595024 0.19563180182391862 0.1923894499268185 0.18853135420867012 0.1841272018644256 0.17925542079522036 0.17400071965159328 0.16846293540160065 0.16273543684786795 0.15691821397858607 0.15110825428845195 0.14539987390888584 0.13988368882584948 0.1346411335115655 0.12974778847631624 0.12526803941053336 0.12125707977267373 0.1177586984443706 0.11480342893302939 0.11240750151997508 0.11056856631303343 0.109259534239956 0.10842697469943496 0.10795126066653697 0.10766941753083825 0.10732289601509966 0.10654525613363157 0.10484033568135263 0.10158643040793441 0.09608128206613505 0.08767113778298487 0.07598049259376725 0.061236001234732225 0.04457256574993786 0.028083505534454083 0.014329470984220114 0.005250637526523812 0.0010343292025845664 8.382031419501765e-07 0.09999722310845448 0.09934795044541136 0.09827196635167558 0.09679609043450124 0.09495166866261645 0.09277740315362798 0.09032172258618242 0.08763604525194113 0.08477523354903743 0.08180151415445486 0.07877156845559155 0.0757449720284838 0.07277855534308952 0.069925132480812 0.06723518005450631 0.06475422878255158 0.0625240749616574 0.06058189146082174 0.05896122168727499 0.057692470016028057 0.05680338593561859 0.05631802318855223 0.056256904824667775 0.05663422238043956 0.05745766649686442 0.05870396343854363 0.06033183650062131 0.06224464680847408 0.06427131090980667 0.06612977219679146 0.06739693549006465 0.06748448443568973 0.06566745667356937 0.06119253572265841 0.053526275001707466 0.042739546090457645 0.029904933222092818 0.017186760536935124 0.007210555691157242 0.001657271820494377 1.2262884349832161e-06 0.04071562162151871 0.040410111045800515 0.039912765674201545 0.03923724031971468 0.03840097729555892 0.037424556960225876 0.03633246303985271 0.03515127032611986 0.03390744872377704 0.032631493202809635 0.031350544485930575 0.030091695837122238 0.028881009853606508 0.02774251997235506 0.026698574498348435 0.025769883087758395 0.024975966406751628 0.024335224446721274 0.023865657203692967 0.023586422509023052 0.02351757218311212 0.023681693095390383 0.02410429788310413 0.024813927888452377 0.025843879532857255 0.027220876504209676 0.028973721860361786 0.031114118855079 0.033622239515833804 0.036419632627777275 0.03932981571095032 0.042029929943159565 0.0440013533897467 0.044516744813471745 0.04271813867965422 0.03787173385282844 0.029838076699066154 0.019633356175032073 0.009621216626966711 0.0026462709838161735 1.7762363552306478e-06 0.013002005476539423 0.012891717176040304 0.01271504908311298 0.012477883074107379 0.01218689559729076 0.011850029821267503 0.011476932157851444 0.011077508861799562 0.010661620624349681 0.010240375330540381 0.009823434217031139 0.00942055882521374 0.009040838343606136 0.008692610069993145 0.008383740142825046 0.00812166092405578 0.00791384705806304 0.007767738241535336 0.007691617635421266 0.007694991964235548 0.007789264742663125 0.007988668759113606 0.008311266524408887 0.008779919797945755 0.009424633595510523 0.010279395955781041 0.011388541534714728 0.012801402223102333 0.014568542378325626 0.016730526359467767 0.01929550506791348 0.022200489818663707 0.025250487828851483 0.02803985326002663 0.029884286186518644 0.02983503444301379 0.02691049735951174 0.0206822495662884 0.0121389077609359 0.004130186983141772 2.502011441014951e-06 0.0030497974702861407 0.0030210338679468665 0.002975738216900351 0.0029155626303669488 0.0028423956238350268 0.0027583624182508874 0.0026661329231415913 0.0025684144637974915 0.0024677403610237907 0.002367057669422019 0.0022688493423191646 0.0021755959075672516 0.0020895715397048994 0.0020129493311378944 0.00