# vtk DataFile Version 3.0
vtk output
ASCII
DATASET RECTILINEAR_GRID
DIMENSIONS 41 41 1
X_COORDINATES 41 double
0 1 2 3 4 5 6 7 8 9 10 11 12 13 14 15 16 17 18 19 20 21 22 23 24 25 26 27 28 29 30 31 32 33 34 35 36 37 38 39 40 
Y_COORDINATES 41 double
0 1 2 3 4 5 6 7 8 9 10 11 12 13 14 15 16 17 18 19 20 21 22 23 24 25 26 27 28 29 30 31 32 33 34 35 36 37 38 39 40 
Z_COORDINATES 1 double
0
POINT_DATA 1681
FIELD FieldData 1
Concentracao 1 1681 double
1.0 1.0 0.9999999999999999 0.9999999999999999 1.0 1.0 0.9999999999999999 0.9999999999999997 0.9999999999999993 0.999999999999999 0.9999999999999983 0.9999999999999982 0.999999999999998 0.9999999999999978 0.9999999999999974 0.999999999999997 0.9999999999999967 0.9999999999999958 0.9999999999999957 0.9999999999999863 0.9999999999997069 0.9999999999930343 0.9999999998677171 0.9999999979826016 0.9999999749008929 0.9999997426139869 0.9999978002087235 0.9999841969408493 0.9999039875907577 0.9995044411468798 0.9978210209938131 0.9918284079035965 0.9738711632522792 0.9288832290233223 0.8356694391122316 0.6785092616301884 0.46805338662111295 0.2523689303343101 0.09318120533022821 0.017606904279963618 9.497224883501184e-05 1.0 1.0 1.0 1.0 1.0000000000000004 1.0 0.9999999999999991 0.9999999999999991 0.9999999999999989 0.999999999999998 0.9999999999999983 0.9999999999999996 0.9999999999999989 0.9999999999999984 0.999999999999998 0.9999999999999958 0.9999999999999963 0.9999999999999962 0.9999999999999961 0.9999999999999863 0.9999999999996986 0.9999999999928204 0.999999999864096 0.999999997933903 0.9999999743668045 0.9999997379295645 0.9999977657429004 0.9999839871111177 0.9999029149076132 0.9994998546133219 0.997804589558144 0.991779093104243 0.973747898721508 0.9286310563336437 0.8352500576539333 0.6779562270304362 0.4674955971723351 0.25196255268548684 0.09299170597845734 0.01756342047491783 9.469565028831975e-05 1.0 1.0 1.0 1.0 1.0 1.0 0.9999999999999992 0.9999999999999991 0.9999999999999989 0.9999999999999986 0.9999999999999982 0.9999999999999981 0.9999999999999977 0.9999999999999988 0.9999999999999983 0.9999999999999971 0.9999999999999954 0.9999999999999952 0.9999999999999947 0.9999999999999865 0.999999999999678 0.9999999999923758 0.9999999998567705 0.9999999978371268 0.9999999733367364 0.9999997289967787 0.9999977014428059 0.999983602215953 0.9999009933510263 0.9994918208284329 0.9977764903468952 0.9916970184674929 0.9735491735342086 0.9282343570177207 0.8346093119187405 0.677139748095378 0.46669585228185256 0.25139975544761767 0.09273710258601116 0.01750661901154016 9.434029984853909e-05 1.0000000000000002 1.0000000000000002 1.0 1.0 0.9999999999999998 0.9999999999999998 0.9999999999999993 0.9999999999999994 0.9999999999999993 0.9999999999999992 0.9999999999999993 0.9999999999999991 0.9999999999999982 0.9999999999999981 0.9999999999999988 0.9999999999999983 0.999999999999998 0.9999999999999982 0.9999999999999977 0.9999999999999862 0.9999999999996437 0.9999999999916589 0.9999999998451177 0.9999999976858276 0.9999999717482085 0.9999997153659606 0.9999976048181506 0.9999830322327565 0.9998981898051703 0.9994802757346088 0.9977366908235477 0.9915826035241984 0.9732763881671062 0.9277010465446401 0.8337643760816909 0.6760806798900779 0.46568436454078876 0.2507032855167026 0.09242765433793936 0.01743884371679817 9.391717764750253e-05 1.0000000000000002 1.0000000000000002 0.9999999999999998 0.9999999999999999 0.9999999999999999 0.9999999999999997 0.9999999999999992 0.999999999999999 0.9999999999999992 0.9999999999999991 0.999999999999999 0.9999999999999987 0.9999999999999982 0.9999999999999977 0.9999999999999974 0.999999999999997 0.9999999999999974 0.9999999999999972 0.9999999999999964 0.9999999999999841 0.9999999999995904 0.9999999999905931 0.9999999998280672 0.9999999974685263 0.9999999695031265 0.9999996963757714 0.9999974724354155 0.9999822629766573 0.9998944553996151 0.9994651084589956 0.9976851618768088 0.9914365408971474 0.972933172971289 0.9270391791133289 0.8327336022872701 0.674810108778765 0.4644921893337591 0.2498988694991467 0.09207639441788697 0.017363355394573274 9.343981367664079e-05 1.0000000000000002 1.0 1.0 0.9999999999999997 0.9999999999999997 0.9999999999999994 0.9999999999999996 0.9999999999999993 0.9999999999999999 0.9999999999999988 0.9999999999999981 0.9999999999999972 0.999999999999997 0.9999999999999966 0.9999999999999951 0.9999999999999956 0.999999999999995 0.9999999999999958 0.9999999999999946 0.9999999999999795 0.9999999999995125 0.9999999999890589 0.9999999998041321 0.9999999971695479 0.9999999664714665 0.9999996712057694 0.9999972996626841 0.9999812757817542 0.9998897380915169 0.9994462280286394 0.9976219312290844 0.9912598942424892 0.9725241270946176 0.9262619805386526 0.8315407829562088 0.6733660398672462 0.4631599425808785 0.24901584727733406 0.09169963660552988 0.01728426095266717 9.292469257388876e-05 1.0000000000000002 0.9999999999999991 0.9999999999999991 0.9999999999999994 0.9999999999999992 0.9999999999999994 1.0 0.9999999999999994 0.9999999999999996 0.9999999999999994 0.9999999999999989 0.9999999999999983 0.999999999999997 0.9999999999999969 0.9999999999999964 0.9999999999999954 0.999999999999994 0.999999999999994 0.9999999999999933 0.9999999999999731 0.999999999999398 0.9999999999868769 0.9999999997710057 0.999999996765741 0.9999999624765753 0.9999996387127786 0.9999970810685371 0.9999800491343855 0.9998839775144797 0.9994235560478623 0.997547185979433 0.9910543971054544 0.9720558489300155 0.9253868750101556 0.8302216837530324 0.6717987467145757 0.4617464475034542 0.24810092395985256 0.0913197636008814 0.01720670772362641 9.239194385266974e-05 1.0000000000000002 0.9999999999999991 0.9999999999999991 0.9999999999999994 0.999999999999999 0.9999999999999994 0.9999999999999994 0.9999999999999992 0.9999999999999992 0.9999999999999993 1.0 0.9999999999999991 0.999999999999998 0.9999999999999981 0.9999999999999961 0.9999999999999963 0.9999999999999953 0.9999999999999947 0.9999999999999938 0.9999999999999671 0.9999999999992316 0.9999999999837745 0.999999999725324 0.999999996225863 0.999999957274972 0.9999995974622381 0.999996809599293 0.9999785579884864 0.999877111824679 0.9993970342431011 0.9974613456610287 0.990822468102781 0.9715368256472489 0.924435348111011 0.8288169190778959 0.6701701650053824 0.46031710555297173 0.24720694577086189 0.09096174736041482 0.0171366565544938 9.186474526447448e-05 0.9999999999999998 0.9999999999999989 0.9999999999999989 0.9999999999999994 0.9999999999999992 0.9999999999999997 0.9999999999999996 0.9999999999999991 0.9999999999999988 0.9999999999999983 0.9999999999999991 0.9999999999999988 0.9999999999999981 0.9999999999999981 0.9999999999999972 0.9999999999999967 0.999999999999996 0.9999999999999961 0.9999999999999949 0.9999999999999577 0.9999999999989824 0.9999999999793184 0.9999999996621876 0.9999999955050328 0.999999950543488 0.9999995456227253 0.9999964771089783 0.9999767745394939 0.9998690830598734 0.9993666653617136 0.99736501505678 0.9905674365037777 0.9709777217482868 0.923433454787224 0.8273755205404701 0.668547600371092 0.45894541006873874 0.246387930424459 0.09065300832397274 0.017080865210524997 9.136891127292356e-05 0.9999999999999992 0.9999999999999981 0.9999999999999987 0.9999999999999992 0.9999999999999992 0.9999999999999986 0.9999999999999993 0.9999999999999994 0.9999999999999984 0.9999999999999978 0.9999999999999983 0.9999999999999981 0.9999999999999974 0.9999999999999969 0.9999999999999962 0.9999999999999958 0.9999999999999951 0.999999999999995 0.9999999999999938 0.9999999999999402 0.9999999999986008 0.9999999999728374 0.9999999995743238 0.9999999945401796 0.9999999418471877 0.9999994807542946 0.9999960735145972 0.9999746685501302 0.9998598390910617 0.9993325351690107 0.9972592549136786 0.9902940121420963 0.9703933053333865 0.9224150889520301 0.8259586607791356 0.6670187751892234 0.45772434257009337 0.24571661429744462 0.09042970726018307 0.017047564365514353 9.093499547395901e-05 0.999999999999999 0.9999999999999984 0.9999999999999982 0.9999999999999994 0.999999999999999 0.9999999999999982 0.9999999999999988 1.0 0.9999999999999991 0.9999999999999983 0.9999999999999978 0.9999999999999973 0.9999999999999969 0.9999999999999973 0.9999999999999954 0.999999999999995 0.999999999999994 0.999999999999994 0.9999999999999923 0.9999999999999108 0.9999999999980053 0.9999999999632608 0.9999999994507596 0.9999999932427625 0.9999999306204671 0.999999400044524 0.999995587621791 0.9999722086643701 0.9998493457276839 0.9992948261993742 0.9971455114917075 0.9900079156969486 0.9698000112050167 0.9214169598880003 0.8246311357412758 0.6656757365728461 0.45674988402817457 0.24526657449545883 0.0903282748917166 0.017045728675436713 9.059614568109685e-05 0.999999999999999 0.9999999999999997 0.999999999999998 0.9999999999999992 0.9999999999999987 0.9999999999999972 0.9999999999999983 0.9999999999999991 0.9999999999999988 0.9999999999999982 0.9999999999999973 0.9999999999999968 0.9999999999999961 0.9999999999999969 0.9999999999999958 0.9999999999999952 0.9999999999999937 0.9999999999999934 0.9999999999999895 0.9999999999998592 0.9999999999970512 0.9999999999488595 0.9999999992751011 0.9999999914888122 0.9999999161132098 0.9999992998855775 0.9999950065194714 0.9999693651218571 0.9998375948540734 0.9992538731950286 0.9970257181461027 0.9897163877156469 0.9692177458012888 0.9204835794191792 0.8234701628786331 0.6646220951065854 0.4561343545618301 0.2451230369334481 0.09039120246007706 0.01708544455745476 9.038905983282074e-05 0.9999999999999988 0.9999999999999988 0.9999999999999977 0.9999999999999982 0.9999999999999982 0.999999999999997 0.9999999999999971 0.999999999999998 0.9999999999999982 0.9999999999999973 0.9999999999999969 0.9999999999999961 0.9999999999999948 0.9999999999999946 0.9999999999999956 0.9999999999999963 0.9999999999999947 0.9999999999999925 0.9999999999999849 0.9999999999997697 0.9999999999954785 0.9999999999267594 0.9999999990221007 0.9999999891009403 0.9999998973282047 0.9999991759346731 0.9999943160439068 0.9999661110146626 0.9998246161110553 0.9992101921764236 0.9969024578545452 0.9894281768269919 0.9686698933117409 0.9196640221167254 0.8225609872171442 0.6639740063114445 0.4560002674255735 0.24537851366158045 0.09066372616625892 0.01717827788459125 9.035446241426143e-05 0.9999999999999988 0.999999999999999 0.999999999999999 0.9999999999999982 0.9999999999999978 0.9999999999999966 0.9999999999999968 0.999999999999998 0.999999999999998 0.9999999999999969 0.9999999999999973 0.9999999999999969 0.9999999999999946 0.9999999999999946 0.9999999999999954 0.9999999999999954 0.9999999999999941 0.9999999999999933 0.999999999999976 0.999999999999601 0.9999999999928032 0.9999999998921066 0.9999999986526582 0.9999999858238215 0.9999998729386111 0.9999990228188154 0.999993500866257 0.9999624261624677 0.9998104908099698 0.9991645020043677 0.9967789393877678 0.9891537195030924 0.9681829709406375 0.9190127705207264 0.821994846903334 0.663857063474913 0.4564799758819905 0.2461375276702438 0.09119912431572619 0.017337379812226914 9.053753304162618e-05 0.9999999999999984 0.9999999999999996 0.9999999999999988 0.9999999999999989 0.9999999999999974 0.9999999999999951 0.9999999999999963 0.9999999999999961 0.9999999999999971 0.9999999999999963 0.9999999999999954 0.9999999999999959 0.9999999999999954 0.9999999999999957 0.9999999999999951 0.9999999999999953 0.9999999999999946 0.9999999999999927 0.9999999999999584 0.9999999999992716 0.9999999999880899 0.999999999836463 0.9999999981048013 0.9999999812899389 0.9999998412076285 0.9999988341610189 0.9999925449730712 0.9999583000076603 0.9997953663447635 0.9991177849942432 0.9966590766849913 0.9889048502110336 0.9677863515596086 0.9185898495463017 0.8218716311534057 0.6644060145756514 0.4577181192602471 0.24751628670109313 0.09205817037587458 0.017578192588206046 9.098914005650495e-05 0.999999999999998 0.9999999999999976 0.9999999999999973 0.9999999999999984 0.999999999999997 0.9999999999999956 0.9999999999999956 0.9999999999999964 0.9999999999999967 0.9999999999999959 0.9999999999999948 0.9999999999999952 0.9999999999999963 0.9999999999999954 0.9999999999999953 0.9999999999999947 0.9999999999999937 0.9999999999999906 0.9999999999999117 0.9999999999985815 0.999999999979435 0.9999999997445554 0.9999999972775073 0.9999999749550886 0.9999997997733578 0.9999986021476199 0.9999914319995776 0.9999537356865196 0.9997794622119361 0.9990712694085898 0.9965474658673235 0.9886949351431457 0.9675115426391159 0.918457679560121 0.8222963193182411 0.6657648717995663 0.4598710963491407 0.2496412184076796 0.09330909534749007 0.01791879236100183 9.176688298096654e-05 0.9999999999999977 0.9999999999999972 0.9999999999999966 0.999999999999998 0.9999999999999977 0.9999999999999951 0.9999999999999939 0.9999999999999952 0.9999999999999961 0.9999999999999952 0.9999999999999942 0.9999999999999938 0.9999999999999946 0.9999999999999941 0.9999999999999946 0.9999999999999938 0.9999999999999928 0.9999999999999797 0.9999999999997781 0.9999999999970096 0.9999999999626435 0.9999999995873594 0.9999999960016144 0.9999999659975769 0.99999974541525 0.9999983172449651 0.9999901452693315 0.9999487515866068 0.999763080095912 0.9990264407163931 0.9964492275578102 0.9885382752851886 0.9673916067632453 0.9186816358670018 0.8233772845229713 0.6680851327510282 0.46310949253492856 0.2526544120684145 0.09503083534172986 0.018380861202715197 9.293670297294172e-05 0.9999999999999969 0.9999999999999968 0.999999999999996 0.9999999999999988 0.9999999999999971 0.9999999999999957 0.9999999999999941 0.9999999999999947 0.9999999999999961 0.9999999999999949 0.999999999999994 0.9999999999999933 0.9999999999999925 0.9999999999999933 0.9999999999999927 0.9999999999999906 0.999999999999979 0.9999999999999093 0.9999999999992876 0.9999999999928889 0.9999999999273498 0.9999999993051623 0.9999999939744851 0.999999953117194 0.9999996735593433 0.9999979674276445 0.9999886673502992 0.9999433840580112 0.9997466004947101 0.9989850068793102 0.9963699744373286 0.988449628456077 0.9674599365777407 0.9193257969978097 0.8252229398248274 0.6715222533723659 0.4676129596092899 0.25671559520838844 0.09731540738955792 0.01899070410040026 9.457519761095555e-05 0.9999999999999969 0.9999999999999963 0.9999999999999953 0.9999999999999982 0.9999999999999966 0.9999999999999944 0.9999999999999934 0.9999999999999937 0.9999999999999949 0.9999999999999938 0.9999999999999921 0.999999999999989 0.9999999999999841 0.9999999999999747 0.9999999999999557 0.9999999999999063 0.9999999999997664 0.9999999999992649 0.9999999999967253 0.9999999999793759 0.9999999998429686 0.9999999987595638 0.999999990610264 0.999999934127567 0.9999995774084992 0.99999753642114 0.9999869782269886 0.9999376836429736 0.9997304719849259 0.9989488313643796 0.9963154566470379 0.988443621494007 0.9677484032707112 0.9204522568309028 0.8279388140334096 0.6762328808744336 0.4735762295269884 0.26200325212976905 0.10027238905464293 0.0197808084787672 9.67724030518583e-05 0.9999999999999867 0.9999999999999858 0.999999999999986 0.9999999999999858 0.9999999999999828 0.9999999999999781 0.9999999999999712 0.9999999999999647 0.9999999999999545 0.9999999999999354 0.9999999999999042 0.999999999999849 0.9999999999997531 0.9999999999995716 0.9999999999992202 0.9999999999984872 0.9999999999968306 0.9999999999925476 0.9999999999788121 0.9999999999199728 0.999999999595857 0.9999999975684482 0.9999999846205033 0.9999999049690182 0.9999994458244267 0.9999970006219439 0.999985050080598 0.999931704524778 0.9997151781730764 0.9989198064095125 0.9962912007476532 0.9885336893433848 0.9682854876283026 0.9221165356978893 0.8316242047263674 0.6823755861807013 0.4812042410317008 0.2687205806257984 0.10403203856799403 0.020791831665745955 9.963515920027693e-05 0.9999999999996848 0.9999999999996748 0.9999999999996527 0.9999999999996162 0.9999999999995584 0.9999999999994744 0.9999999999993519 0.999999999999173 0.9999999999989055 0.9999999999984969 0.9999999999978597 0.9999999999968393 0.99999999999516 0.9999999999923093 0.9999999999873004 0.9999999999781333 0.9999999999604393 0.9999999999235432 0.999999999836496 0.999999999586553 0.9999999986642724 0.9999999944353825 0.9999999726311488 0.9999998569855719 0.9999992584834719 0.999996320203641 0.9999828322329164 0.9999254812398826 0.9997011818753139 0.9988997038518204 0.9963020786861218 0.9887310225585711 0.9690943951248125 0.9243639836620227 0.8363661287326604 0.6900992895853021 0.4907127405932207 0.2770973274993645 0.1087520789533817 0.02207512753625913 0.00010329182448775389 0.9999999999925169 0.9999999999922884 0.9999999999918147 0.9999999999910488 0.99999999998991 0.9999999999882705 0.9999999999859407 0.999999999982629 0.999999999977876 0.9999999999709696 0.9999999999607738 0.9999999999454589 0.9999999999219888 0.9999999998852523 0.9999999998263844 0.9999999997294082 0.999999999564132 0.9999999992689383 0.9999999987027156 0.9999999974819025 0.9999999943258823 0.9999999841154057 0.9999999440321146 0.9999997683217317 0.999998972036982 0.9999954186333738 0.9999802258826602 0.9999189814657315 0.9996888290664872 0.9988899482018945 0.9963517770312548 0.9890432608126142 0.9701900740318774 0.927225636740097 0.8422326248607204 0.6995430124808407 0.5023254848409759 0.28739242336311 0.11462224432978424 0.023697052323045767 0.00010789830174912786 0.9999999998586077 0.9999999998547926 0.9999999998470296 0.999999999834663 0.9999999998165571 0.9999999997911402 0.9999999997559711 0.9999999997074925 0.9999999996405305 0.9999999995474135 0.9999999994165767 0.9999999992307752 0.9999999989634967 0.99999999857377 0.9999999979968316 0.9999999971274621 0.9999999957902505 0.9999999936732378 0.9999999901776209 0.9999999840016127 0.9999999717822535 0.9999999430766994 0.9999998601485698 0.9999995740091135 0.9999984781081314 0.9999941264672683 0.9999770017550788 0.9999120048750849 0.9996781821347995 0.9988913014566974 0.9964421392133754 0.9894733284679915 0.9715768269422664 0.9307136874545747 0.8492666400064154 0.7108246967228207 0.5162701429279212 0.29990047209740367 0.12187630440433775 0.025743469637532126 0.00011364515845530648 0.999999997854744 0.9999999978038334 0.9999999977019746 0.9999999975423995 0.9999999973130298 0.999999996997385 0.9999999965711206 0.9999999960014121 0.9999999952411417 0.9999999942241629 0.99999999285773 0.999999991012193 0.9999999885023382 0.9999999850621086 0.9999999803094897 0.9999999736804589 0.9999999643265686 0.9999999509116512 0.9999999312032352 0.9999999010913465 0.9999998519056196 0.9999997619978633 0.9999995676090889 0.999999056084094 0.9999974666834719 0.99999201380035 0.9999726091917417 0.9999039425564329 0.9996687439703041 0.9989034421789428 0.9965724551917772 0.990018051219196 0.9732460589672005 0.9348164629410628 0.8574778445650046 0.7240319107067329 0.5327690042273266 0.31495232497135967 0.1307973408844287 0.02832616137112342 0.00012076641159738195 0.9999999734440058 0.9999999728899631 0.9999999718130396 0.9999999701479861 0.9999999677922632 0.9999999646100085 0.9999999604166685 0.9999999549579708 0.9999999478967059 0.9999999387794445 0.999999927017329 0.9999999118305285 0.9999998921840114 0.9999998667032806 0.9999998335936694 0.9999997904211637 0.999999733878387 0.9999996592877695 0.9999995597359576 0.9999994239680525 0.9999992316160943 0.9999989396187309 0.9999984411901961 0.999997432731908 0.999994961714842 0.999987879098455 0.999965618145526 0.9998931904769485 0.9996588052789088 0.9989242887318216 0.996738870254916 0.9906674594640851 0.9751752345020638 0.9394974343477809 0.8668388822834217 0.7392159917714163 0.5520406955773877 0.3329222746438076 0.14173993073170263 0.03159406107252619 0.00012954955565985194 0.9999997290042771 0.9999997241848309 0.9999997149090324 0.9999997007101409 0.9999996809014896 0.9999996546317284 0.9999996207140308 0.9999995776600233 0.9999995235709603 0.9999994559183103 0.999999371793246 0.9999992674687541 0.9999991384672972 0.9999989792602163 0.9999987833047614 0.9999985426088214 0.9999982474597524 0.9999978856640838 0.9999974408035456 0.9999968892114105 0.9999961911727067 0.9999952708117154 0.9999939610816468 0.999991840061369 0.9999877324269796 0.9999781179059615 0.9999520831308579 0.9998755284823956 0.9996438127909059 0.9989482938348798 0.996931933818022 0.9914014822219731 0.9773210295791033 0.9446800149382024 0.8772580543976772 0.7563485550172088 0.5742440017406241 0.3541946088667813 0.1551205477484004 0.03573992294053535 0.0001403499636062499 0.999997694933834 0.9999976597648853 0.9999975934535345 0.9999974934317435 0.9999973561609706 0.9999971768646373 0.9999969499459128 0.999996668134841 0.9999963230463635 0.9999959043057879 0.999995400419168 0.9999947981531846 0.9999940830292194 0.9999932394298309 0.9999922511171743 0.9999911016049385 0.9999897742398398 0.9999882518092612 0.9999865147732768 0.9999845361261105 0.9999822664311546 0.9999796091310768 0.9999763393218538 0.9999719170884368 0.9999649418910947 0.9999515538653968 0.9999206712530117 0.9998396666026651 0.9996125212018443 0.9989633357842711 0.9971352320915607 0.9921906149575913 0.9796253492643435 0.950262473044169 0.8886009183352847 0.7753491601255224 0.5995134767039363 0.379201349306455 0.17146273692811537 0.04102663716625436 0.00015360070011792237 0.9999835178082155 0.9999833055298835 0.9999829113761186 0.9999823250955208 0.9999815321934399 0.9999805135756116 0.9999792472498608 0.9999777076242549 0.9999758663294749 0.9999736925565179 0.99997115445394 0.9999682219446437 0.9999648680418262 0.9999610728681966 0.9999568266615423 0.9999521339915715 0.9999470153966982 0.9999415102306861 0.9999356729086161 0.9999295623476879 0.999923218691801 0.9999166164068906 0.9999095643306657 0.9999014688634097 0.9998907592534988 0.9998733002656878 0.9998380351727714 0.9997542936034977 0.9995357683984328 0.9989412778119081 0.9973173175250104 0.9929889915527997 0.9820077173879936 0.9561018493655042 0.9006625858195241 0.7960376301438626 0.627892715873831 0.4083722621489259 0.19139052368738815 0.04780372481377458 0.000169830092290129 0.9999003176331718 0.9998992419080466 0.9998972883548084 0.9998944233758544 0.9998905974887391 0.9998857581323471 0.9998798443301828 0.9998727937694377 0.9998645483679555 0.9998550562223493 0.9998442841880255 0.9998322262057904 0.9998189153018886 0.9998044378573057 0.999788948351717 0.999772675455774 0.9997559323018529 0.9997391129418667 0.9997226813685568 0.9997071378496193 0.9996929624265156 0.9996805182817711 0.9996698851597765 0.9996605869341707 0.9996509487014036 0.9996364932398717 0.9996061781188955 0.9995313857277741 0.999335832789998 0.9988132739264707 0.9974130664688524 0.9937223043832367 0.9843578722814214 0.9620167787196185 0.9131699782889734 0.8181197189592421 0.6593056356163133 0.4421095636017615 0.21564684310508175 0.0565418507388229 0.00018967381819297806 0.9994877908144641 0.9994832331910597 0.9994751267640112 0.9994634075514985 0.999447965126988 0.9994287102219491 0.9994055669610399 0.9993784805423023 0.9993474593179006 0.9993125969291551 0.9992740867454708 0.9992322783155994 0.9991877069521334 0.9991411155140743 0.9990935161015092 0.9990461716879757 0.9990006071945017 0.9989585735926599 0.9989219792525045 0.9988927604878555 0.998872729992451 0.9988633470244275 0.9988654002234895 0.9988785876874134 0.9989008489014678 0.9989266805799599 0.9989441027136999 0.9989253913545899 0.9988028306191314 0.9984026945402317 0.9972719134104645 0.9942500365826706 0.986514110638046 0.9677730795344588 0.9257693359373889 0.841170349875214 0.6935123544975602 0.480743106404287 0.24509226417895172 0.06787392676804765 0.0002138797810632126 0.9977576126399685 0.9977414398965659 0.9977133083107176 0.9976731885085682 0.9976210611606945 0.9975569671588871 0.9974811115874597 0.9973939378530092 0.9972960793724687 0.9971886347042448 0.9970730965332024 0.9969514537594683 0.9968263568215809 0.9967010923548616 0.9965796630974136 0.9964667633570089 0.9963676172446075 0.9962879446990353 0.9962336001571448 0.9962102047257746 0.9962227089294902 0.9962748548024267 0.9963685121889447 0.996502965397415 0.9966743317786955 0.9968731157009988 0.9970829189139001 0.9972725034316464 0.9973775045763799 0.9972494984224167 0.9965212294575921 0.9942645825773434 0.9881932295049067 0.9730442907166867 0.9380104020102049 0.8646067722249341 0.7300539097830492 0.524455285800736 0.28069917657463467 0.0826516020857445 0.00024330022588457917 0.9916263143222751 0.9915782526492043 0.9914967573595765 0.9913822588064181 0.9912354874447079 0.9910575574757046 0.9908502676918546 0.9906161151779541 0.9903585243860411 0.9900823203168186 0.989793355675738 0.9894990236624804 0.9892082448440551 0.9889316477004643 0.988681271942495 0.9884707026785684 0.9883144619862151 0.9882275236931594 0.9882247161278667 0.9883196465242048 0.9885236355471947 0.9888443961572703 0.9892848588577604 0.9898417792020845 0.9905050485707707 0.9912543797432327 0.9920600535509008 0.9928760885099435 0.9936284489134022 0.9941779175655846 0.994220669415982 0.9930267171996328 0.9888009210167004 0.9772879840447489 0.9492719730457756 0.8876491125295619 0.7681850707835233 0.5731771070009781 0.3235061190651511 0.10202061407450339 0.00027885875624760197 0.9733353971103602 0.9732164837788864 0.9730208778387095 0.9727499836660737 0.9724075306378185 0.9719982447729233 0.9715288852431329 0.971008126263962 0.970446849317237 0.969860083032818 0.969264541820475 0.9686804439235512 0.9681315162042038 0.9676446414409562 0.9672495742247458 0.9669782103341067 0.9668639967409988 0.9669406950420478 0.9672405080265856 0.9677921935011605 0.9686191617820206 0.969736468053562 0.9711484026897591 0.9728462270571329 0.9748071295494042 0.9769873333183107 0.9793282148322813 0.981748747162158 0.9841382991810942 0.9863354924057872 0.988059242078138 0.9887215215420968 0.9869409500685512 0.9794004366468051 0.9585496312983914 0.9091873333660786 0.8067597934261467 0.6264308677430285 0.37452866178666566 0.1275098245212845 0.0003214679832393235 0.9277137797210477 0.9274731624466575 0.9270862552107322 0.9265609758320997 0.9259055223505818 0.9251333537111488 0.9242621803041714 0.9233138137959301 0.9223146803992237 0.92129909616952 0.9203042157508501 0.9193750465887215 0.9185611762783208 0.9179176234566343 0.9175049719761226 0.9173861945632011 0.9176272180167911 0.9182926384908794 0.9194450359191425 0.9211403494723791 0.9234242635619552 0.9263280344260574 0.9298639348209135 0.9340201965090948 0.9387600179506633 0.9440062509598065 0.9496564368130632 0.9555666747712256 0.9615546123823824 0.9673853642693424 0.9727328594093329 0.9770579622374006 0.9792667839515514 0.9768348994813943 0.9638376964890589 0.9274020160629096 0.8439752603512124 0.6830799845127175 0.4345811216518595 0.16114429791138468 0.00037187135781366375 0.8336005011930158 0.833204843448203 0.8325859982299153 0.8317610402268183 0.830748484099535 0.8295723892691792 0.828268889176859 0.8268789952114249 0.825452192888112 0.8240501415915616 0.8227381493579115 0.8215939899051076 0.8207034835742435 0.8201584484320801 0.8200593786284377 0.820511867361089 0.8216249018100276 0.8235075029811998 0.8262657979930169 0.8299996712587047 0.834796687944635 0.8407253796601597 0.8478291015899692 0.8561178088575446 0.8655642803494983 0.8760766454331548 0.8875200596512982 0.8996888798039281 0.9123089453136093 0.9250252206333426 0.9373864942190824 0.9487721442862366 0.9581826749956693 0.9636269629028565 0.960577572794798 0.9386727081011347 0.8766689436807026 0.7407845895353724 0.5038752559242418 0.20555197617774312 0.00043035871048599153 0.6756121930511791 0.675096538651656 0.6743162670013991 0.6732919047206071 0.6720546149428461 0.6706425969865205 0.6691063947266228 0.6675082532418191 0.6659158139228664 0.6644171436732987 0.6631046653419211 0.6620823683679529 0.6614668048156173 0.6613839734701302 0.6619690441520671 0.6633664801513934 0.6657282627448157 0.6692103726891944 0.6739700373934331 0.6801664890571754 0.6879493759806434 0.6974585419043684 0.7088128241749972 0.7221007470716848 0.7373746388224742 0.7546069916361324 0.7737181452902595 0.7945284336851924 0.8167437036463018 0.8399384935916445 0.8635292744971276 0.8867356208487107 0.9084489066007994 0.9268571648977783 0.9383606486443223 0.9348629652493592 0.898341867870014 0.7946142599470785 0.5810708019414547 0.26397026080833014 0.0004962801257954034 0.4649583330507315 0.4644445195721025 0.4636885555189274 0.46272012402497875 0.4615701814115931 0.460279350606209 0.4589064972537328 0.4575170793555781 0.45618466441602745 0.4550022577330789 0.4540659034013952 0.45348796384977674 0.4533909932256026 0.45390739125789437 0.4551818589386531 0.45737089151903587 0.46064521552477605 0.46518469644673527 0.4711843792961478 0.4788496440374548 0.48839684832517866 0.5000505631041259 0.5140395125134196 0.5305873127896391 0.54991422332415 0.5721809308408726 0.5975241655435686 0.6259898769628824 0.6575043635650782 0.6918299664432959 0.7285095898804822 0.7667995050637078 0.8055554255805256 0.8429788552043694 0.8759198044043349 0.8979091598965975 0.8942904621825318 0.8332263356205649 0.6606023178166663 0.3397107181226539 0.0005672089781478942 0.2499940810885965 0.24962428793007818 0.24909847840514926 0.2484388600741928 0.24767094880877463 0.24682395572751195 0.24594442933320632 0.24508505281622986 0.24429970637713833 0.24366089534995994 0.24324200811363428 0.2431280452163022 0.2434112870801438 0.24419601009300174 0.24559817075944165 0.2477439636400928 0.25077526552641966 0.25485162441276343 0.2601514076380555 0.2668777790357701 0.27526057037301094 0.28555896560246813 0.29806804095186534 0.3131194056569615 0.3310884725223302 0.35236113826239257 0.3773715608288704 0.40655229104809276 0.44030903321833625 0.4789758347577971 0.5227399223373922 0.5715376497140863 0.6248971894583014 0.6816891189921538 0.7395850591967393 0.7936782750365188 0.8326730139501197 0.8294121104777777 0.7247260304440829 0.4331114128659284 0.0006374872300261103 0.09201185295425164 0.0918416473127449 0.09160671118305003 0.09131698500047446 0.09098533581660559 0.09062793504010991 0.09026700567493412 0.08992735542383998 0.08963624059346434 0.08942959054264803 0.089343