# vtk DataFile Version 3.0
vtk output
ASCII
DATASET RECTILINEAR_GRID
DIMENSIONS 41 41 1
X_COORDINATES 41 double
0 1 2 3 4 5 6 7 8 9 10 11 12 13 14 15 16 17 18 19 20 21 22 23 24 25 26 27 28 29 30 31 32 33 34 35 36 37 38 39 40 
Y_COORDINATES 41 double
0 1 2 3 4 5 6 7 8 9 10 11 12 13 14 15 16 17 18 19 20 21 22 23 24 25 26 27 28 29 30 31 32 33 34 35 36 37 38 39 40 
Z_COORDINATES 1 double
0
POINT_DATA 1681
FIELD FieldData 1
Concentracao 1 1681 double
1.0 1.0 0.9999999999999999 0.9999999999999926 0.9999999999869064 0.9999999926503252 0.9999992024050846 0.9999737939654024 0.9996212127011435 0.9969846408480902 0.984880156280773 0.9475425585819603 0.8651100282050131 0.7286346249847442 0.5530565896144072 0.3725768230421444 0.2210098405853238 0.11513212523799164 0.05269670638941222 0.02123667664751571 0.007556671187665855 0.002381071034735432 0.0006660790019284373 0.0001657688145621956 3.674761708566923e-05 7.261918769193311e-06 1.2788509448073923e-06 2.0042091736885935e-07 2.788414464240444e-08 3.430891986169826e-09 3.7131071686483e-10 3.508520776830843e-11 2.8655449085661996e-12 1.9957134861512348e-13 1.1634087438088329e-14 5.530030140696666e-16 2.0617134115905616e-17 5.665169725581763e-19 1.0235475284106689e-20 9.217315660303896e-23 2.320584022424178e-26 1.0 1.0 1.0 0.9999999999999893 0.9999999999821013 0.9999999905774746 0.9999990293318112 0.9999692771574114 0.9995684550708002 0.9966442762484821 0.9835061325765779 0.9437603061574561 0.8575744570998701 0.7172783898858269 0.5396591932924637 0.35987749621128723 0.21112904316045553 0.10871355402863307 0.049166933691667886 0.0195755839233957 0.006881110399879749 0.002141883087990489 0.000591917011254416 0.00014553779127578705 3.187615499685678e-05 6.224877180655524e-06 1.0833796271249708e-06 1.6782267212606334e-07 2.308165678490499e-08 2.807913593082673e-09 3.005008498597681e-10 2.8081774486256428e-11 2.2686078457190103e-12 1.5630491775723732e-13 9.015444120393795e-15 4.240533226131888e-16 1.5646417526036875e-17 4.2554174804653643e-19 7.610950395384304e-21 6.785431218659562e-23 1.691422357718543e-26 1.0 1.0 1.0 0.9999999999999721 0.9999999999620267 0.9999999833295292 0.9999985003180342 0.9999567203190579 0.9994322894578175 0.9958188554531548 0.9803491722916099 0.9354881394312874 0.8418208815756313 0.6945109189065216 0.5138485072076081 0.3363136712400458 0.19344502537619299 0.09762029097703491 0.04326920629031312 0.016888519024577997 0.005822325452675297 0.0017783765096493394 0.0004825392100623192 0.00011655870122787296 2.5096601959202026e-05 4.8210129813922614e-06 8.258522415723143e-07 1.2599168622543145e-07 1.707591380481013e-08 2.0481850307087777e-09 2.1623961899764273e-10 1.9945344294444416e-11 1.5911856432617289e-12 1.0831025411776305e-13 6.174572276564818e-15 2.871736258236108e-16 1.04806634640795e-17 2.8204280937241714e-19 4.992830766549638e-21 4.406829341374195e-23 1.0877283022402751e-26 0.9999999999999881 0.9999999999999829 0.9999999999999574 0.9999999999995347 0.9999999998256605 0.9999999536178497 0.9999968655885324 0.9999242370728625 0.9991221113154413 0.9941166970740646 0.9743531642253345 0.920843420036524 0.8156078164796714 0.658667631575996 0.47520990394376006 0.30264292899532225 0.16924802305381959 0.0830414562142021 0.035806601091686395 0.013607604182827766 0.004572344332774547 0.0013627112760193005 0.000361218266706989 8.533679537958931e-05 1.79910590579341e-05 3.3877144158369656e-06 5.694612170446966e-07 8.533735286005572e-08 1.1372315285098851e-08 1.3424756216431315e-09 1.3961260339258843e-10 1.269534118821337e-11 9.992458269996017e-13 6.715677272225734e-14 3.782489165245328e-15 1.7390921681035787e-16 6.2779399054923505e-18 1.6718581233956097e-19 2.929995180459236e-21 2.561116408397813e-23 6.261445816893467e-27 0.9999999999791548 0.9999999999718043 0.9999999999417934 0.9999999997542551 0.9999999954931468 0.9999997379313705 0.9999902775906713 0.9998286904647378 0.9983795146768836 0.9906136491054318 0.9633999369430021 0.8965930733175937 0.7756830989010892 0.6079286647960441 0.42395352235203754 0.260510257447494 0.1405282358545421 0.06655693508603334 0.02773772550150754 0.010204118864169224 0.0033248531483655894 0.0009625722745037479 0.0002482642375556602 5.716703446816263e-05 1.1766285129590352e-05 2.1663700586722423e-06 3.566181280508958e-07 5.240832682773297e-08 6.858166341479043e-09 7.959968464396885e-10 8.148725797056871e-11 7.302040014178205e-12 5.669517541163853e-13 3.7621697649619135e-14 2.0939811659835687e-15 9.521063252192631e-17 3.4012942039706055e-18 8.969073550572667e-20 1.5571851310433356e-21 1.348973117136764e-23 3.268359461093625e-27 0.9999999890050577 0.9999999860306638 0.9999999758399525 0.9999999360422418 0.9999996827036682 0.9999966188367672 0.9999522690601679 0.9994901807379729 0.996430819567786 0.9831603553242823 0.9435131011772039 0.8578131460351661 0.7182342525711554 0.5412088579736436 0.36164041947307 0.21272090310444636 0.10991747644083816 0.049945057567976826 0.020011343515076947 0.007093726095788224 0.0022325056186901625 0.0006257213097761098 0.00015660172920470546 3.506676186711329e-05 7.0331116175091335e-06 1.2643157156942124e-06 2.0358355895941843e-07 2.9317250607521557e-08 3.7655373710391215e-09 4.296248609483273e-10 4.3295728754642176e-11 3.824256797790608e-12 2.930345869274211e-13 1.921112456295414e-14 1.057428047865947e-15 4.7589291371674773e-17 1.6839845517783595e-18 4.4013997701604546e-20 7.578327798465666e-22 6.513477577401273e-24 1.56500572815296e-27 0.9999988926851544 0.9999986647958757 0.9999979760351221 0.9999959174995355 0.9999881671115551 0.9999477042495329 0.9996874139374852 0.9981336890730815 0.991002773518312 0.9670699842548072 0.908036975897821 0.7982827354187125 0.6402504573684443 0.459561690271217 0.29189744282417684 0.16325551444918765 0.0803499931681945 0.03486313867714808 0.01337659304916079 0.004554405894295058 0.0013807438649460772 0.00037385316912455713 9.06381223503272e-05 1.9711125307925225e-05 3.849057461832999e-06 6.751958793807097e-07 1.0632497110797703e-07 1.5003990891140835e-08 1.8919981018282188e-09 2.1230295802963064e-10 2.1075740569068667e-11 1.836559514722839e-12 1.3902146424643397e-13 9.014603746795742e-15 4.912999231013692e-16 2.1913591264603235e-17 7.691512162222576e-19 1.9953643428768643e-20 3.411983815127078e-22 2.9135622496406024e-24 6.94735798212077e-28 0.9999657196025005 0.9999602138840101 0.9999449149291336 0.9999062523008027 0.9997972888385438 0.9994331574840246 0.998052114728474 0.9928853750089853 0.9762881453478041 0.9336453755559752 0.847959740467222 0.7125814289435899 0.5419800781405812 0.36756207214711645 0.22049242642977152 0.11666700105121654 0.0544755551393896 0.02250010253294409 0.008247032077660036 0.002691856260512335 0.0007850207262105785 0.00020514329833582013 4.814755260182181e-05 1.016658482045924e-05 1.9328422629084476e-06 3.3094969407035083e-07 5.0990500042585246e-08 7.0560484327186785e-09 8.74335045253222e-10 9.659425243317282e-11 9.457746901186528e-12 8.141706602532878e-13 6.09723552059916e-14 3.916553399140652e-15 2.1169457877881456e-16 9.373898458338096e-18 3.269079706222487e-19 8.432343874022857e-21 1.4343801591192608e-22 1.218918313559542e-24 2.886489370094359e-28 0.9995277689428822 0.9994677605475671 0.9993110499165136 0.9989593672922447 0.9981410659249829 0.9960714402293687 0.9905094694697589 0.9758094074867141 0.9409028054844002 0.8708065762824673 0.7553340769265553 0.6001995115241217 0.4293325083338271 0.2734518948554534 0.15426427752618538 0.07698560204350839 0.034030523359572455 0.013359704064821008 0.00467334930309149 0.0014615215369681175 0.000409910684652482 0.00010338452902576175 2.349725609757217e-05 4.819973592633275e-06 8.928334384948179e-07 1.4936717271201002e-07 2.2542492641911672e-08 3.062916856001645e-09 3.734918951214695e-10 4.0688582635161244e-11 3.9358707239139634e-12 3.353071679336048e-13 2.4888470241017296e-14 1.586733203171342e-15 8.522450452469419e-17 3.75375841899152e-18 1.3032717170030019e-19 3.348952189156727e-21 5.677907389609919e-23 4.810709689557559e-25 1.1320669529993362e-28 0.9963897485594346 0.9960264074085178 0.9951227631276331 0.9932723335302305 0.9895339342410724 0.9817666034437974 0.9653811517637799 0.9319259819035477 0.8696271015634194 0.7685047450314123 0.629453494213813 0.46905788021723804 0.31383754283672116 0.18709500887146419 0.09906118489630537 0.04657719431311195 0.019482366000547733 0.007269752999076893 0.00242762331867712 0.000727800763581128 0.00019646631565252561 4.787166325205317e-05 1.0548988771198022e-05 2.104885417629181e-06 3.804373943589478e-07 6.227981602647388e-08 9.222946344330467e-09 1.2327577102730822e-09 1.482197451802916e-10 1.5955565490497835e-11 1.5280678637563726e-12 1.2911550329156874e-13 9.52047606331314e-15 6.03802693694045e-16 3.230082230219312e-17 1.4184453155131076e-18 4.9140486325496884e-20 1.2608140551911614e-21 2.1352952303018159e-23 1.8075721564166595e-25 4.2287955628768515e-29 0.9825152184174688 0.9811322395528437 0.9778260258616426 0.9715421949302331 0.9601836286916314 0.9398612898614381 0.9041246298644566 0.8442573149345217 0.7525093007797562 0.6280272296819798 0.48196832318970856 0.33524494857968384 0.20932396505264655 0.11671062228371942 0.05800708778265007 0.025714399258953326 0.010188091784539785 0.0036177247868312426 0.0011548565243765666 0.0003324133455792821 8.650337323571186e-05 2.039781195474979e-05 4.365542615747521e-06 8.489157058894048e-07 1.500130267900148e-07 2.4082842566832047e-08 3.507086377351191e-09 4.6216463144297644e-10 5.4918353286520096e-11 5.8556441922446776e-12 5.565905628742704e-13 4.6761512908667786e-14 3.433928196554703e-15 2.172001993926578e-16 1.160218559916789e-17 5.092704614781574e-19 1.764898762736701e-20 4.532566427244455e-22 7.686507236074182e-24 6.516188580303542e-26 1.5159625792139634e-29 0.9411430521318495 0.9375399612292705 0.9292145830531026 0.9143524209719234 0.8898341973658909 0.8509296521933004 0.7916803012552777 0.7068801115576839 0.595995894494574 0.4666029544428294 0.33430003609075704 0.21679541056613508 0.12637584898931117 0.0659897242798039 0.03084299577708166 0.01291737024622424 0.00485826107246566 0.0016452897958296343 0.0005031837548321131 0.0001393654551478212 3.504052846854718e-05 8.014436619152532e-06 1.6698515983783347e-06 3.1721585403737906e-07 5.493960053066238e-08 8.670596678742314e-09 1.2448376861039864e-09 1.6216004524745124e-10 1.9094774960855463e-11 2.0220981313495512e-12 1.912871447340095e-13 1.6023900068054174e-14 1.175190118608192e-15 7.434302893250314e-17 3.9765142338735314e-18 1.749538969279675e-19 6.0819061967961894e-21 1.567651425259148e-22 2.669066302716584e-24 2.2716002307372575e-26 5.2554324579527725e-30 0.85258567517483 0.8457697292698676 0.8304744233243242 0.804616156675254 0.7651408174403553 0.7084628523625085 0.6317543780910277 0.5352767432865292 0.4247010388380082 0.3111482727487968 0.20809405698200525 0.1260043759365627 0.06873819904140714 0.03371018970130611 0.014861582889869204 0.005898095809044384 0.002111916378519558 0.0006840938252375492 0.0002010154308013664 5.372014138838621e-05 1.3086227143962354e-05 2.9110821771340027e-06 5.921055334886052e-07 1.1018776506498527e-07 1.875624566807317e-08 2.918366790360549e-09 4.142654891584929e-10 5.3500543572867287e-11 6.261284307236413e-12 6.605213983234756e-13 6.23750021263984e-14 5.225698819730387e-15 3.839313208605427e-16 2.4365596791905577e-17 1.309040975338388e-18 5.790304182706893e-20 2.0251757733788272e-21 5.2543203668653023e-23 9.006759792950896e-25 7.716886548564574e-27 1.7749935179393615e-30 0.7100973899225043 0.7003180586088905 0.6789225922176128 0.6444413897301434 0.595246323997823 0.5303919962314284 0.45094520595516707 0.36131369607494473 0.2694323756243638 0.18486154063256396 0.11567379912472431 0.0656105274380258 0.03361821531540129 0.01554342360630604 0.006487943280818936 0.0024488378530036527 0.0008377462097216351 0.000260428739103372 7.376127302623739e-05 1.9080391347393287e-05 4.5173379873063225e-06 9.803939983732603e-07 1.9526434224875123e-07 3.570472818445898e-08 5.991705088442429e-09 9.219820289826038e-10 1.2981180519303644e-10 1.667377183630198e-11 1.945695549639847e-12 2.0513719883967994e-13 1.9401476759193785e-14 1.6310202283634954e-15 1.204418704137087e-16 7.693524252284611e-18 4.1652508275980667e-19 1.858400241396432e-20 6.560655791923537e-22 1.7187907921121774e-23 2.975478844324536e-25 2.5740399098881253e-27 5.883318848322842e-31 0.53158826811817 0.520576878773685 0.4970326467010903 0.4606820376258243 0.41183065017191905 0.35204361052193667 0.2848322556857762 0.2157525023635239 0.15142302078419004 0.0975678993189637 0.05733303604801035 0.0305890055044281 0.014786009178422125 0.0064729746697580175 0.0025687521190070678 0.0009258121095928353 0.00030375808923103033 9.095658966560011e-05 2.491959767104319e-05 6.261246356745733e-06 1.445466754523224e-06 3.0708946853916025e-07 6.008979213032543e-08 1.0832284093361232e-08 1.7981062439912587e-09 2.7454263484246047e-10 3.84688995800566e-11 4.9311076556340086e-12 5.757311729430645e-13 6.087629900494354e-14 5.786658708853549e-15 4.898583267684709e-16 3.6487595691232667e-17 2.3543132981272394e-18 1.28901789888621e-19 5.82144948897654e-21 2.081609710871699e-22 5.5258288836355985e-24 9.693389460263235e-26 8.494081549064954e-28 1.9276543609937001e-31 0.3525979683595884 0.34261416181017523 0.3216957802825797 0.29064060659064217 0.2510825000067639 0.2057460569761939 0.15847552500022738 0.11368200988370172 0.07531313957500951 0.04574825137488814 0.025356105142125523 0.01278457878785493 0.005856987193269046 0.002438777734272887 0.0009241731583930818 0.00031937528434709096 0.00010089885487928448 2.921364685580918e-05 7.771094088969879e-06 1.9033138700817043e-06 4.3002377685064175e-07 8.974193304520675e-08 1.731181626961101e-08 3.0875183879905105e-09 5.08746594952346e-10 7.734967545299215e-11 1.0825076261083019e-11 1.389807848421949e-12 1.6295001123659e-13 1.7343868217527438e-14 1.663180296235805e-15 1.4230949719002429e-16 1.0732471162221246e-17 7.021625325435602e-19 3.902673115439228e-20 1.790843152623707e-21 6.510510628159736e-23 1.757739382616027e-24 3.135963672732097e-26 2.7933837731181716e-28 6.287672466860702e-32 0.2057493708729484 0.1983038947148897 0.1829909700127963 0.16106372246675005 0.13444882115745607 0.10569043120912644 0.07763718761831666 0.05289013748145443 0.03319721477495552 0.01909275455352434 0.010027791207235607 0.0048008837589399705 0.0020943274340275504 0.0008332508132898973 0.00030285387710192506 0.0001007789729706195 3.078066826110715e-05 8.651379010869307e-06 2.2428927949184442e-06 5.375072021103113e-07 1.1928278269274706e-07 2.4542100672796746e-08 4.684762226539504e-09 8.296163503488271e-10 1.3619258975094593e-10 2.0695534708067413e-11 2.9036543125215153e-12 3.7479975625047033e-13 4.4299408781639695e-14 4.764895795072209e-15 4.627769727880428e-16 4.0185803653874344e-17 3.0809582891544916e-18 2.0521529870700932e-19 1.1626198622285105e-20 5.442924075249212e-22 2.020017895713634e-23 5.569028746276826e-25 1.0145210328706266e-26 9.222119126596265e-29 2.0563039781514214e-32 0.10539958644474648 0.10075496183226264 0.09136576428254473 0.07835983811808822 0.06325564860766716 0.04777773259980554 0.033554065300507245 0.021780771400935692 0.013003768136070902 0.007112555661738391 0.0035562971595694587 0.001624241086297862 0.0006778421525777235 0.0002588483301296562 9.062762424608531e-05 2.916117654851398e-05 8.646211076494612e-06 2.368295402937855e-06 6.006988183648901e-07 1.4138849454385403e-07 3.093401732727634e-08 6.2983939457739345e-09 1.1941143994359942e-09 2.1076986380404374e-10 3.4603345584205465e-11 5.275860852352758e-12 7.449984801709423e-13 9.70683799591541e-14 1.1612703922579311e-14 1.267480102984167e-15 1.2520081335332343e-16 1.1080146507789454e-17 8.6731367938204135e-19 5.907154329620672e-20 3.4262380798517905e-21 1.6437355657214342e-22 6.2550915104204515e-24 1.7687606961656935e-25 3.304578650974969e-27 3.0787332115431324e-29 6.790116459176244e-33 0.047441341569417074 0.044984112347770944 0.04009570279351124 0.033530144254351184 0.02620887575028636 0.019059904452700605 0.012833464958142405 0.00796530459046763 0.004541697802444387 0.0023726137587148487 0.0011344613443130514 0.0004965289815922979 0.00019912551285185224 7.330209053868111e-05 2.482723779993601e-05 7.756719589770776e-06 2.2414740871756583e-06 6.006816541978064e-07 1.4964197495780174e-07 3.472668288463523e-08 7.519188743398084e-09 1.5207944234016441e-09 2.87452280884943e-10 5.076645723494932e-11 8.36833872787371e-12 1.285232235060583e-12 1.8340557585181758e-13 2.4221736192565494e-14 2.9454044781341594e-15 3.276287766422594e-16 3.306071607697565e-17 2.9953254656477303e-18 2.404837685582281e-19 1.682606406317253e-20 1.003901199894238e-21 4.958967513134054e-23 1.9443237520887553e-24 5.66653161147582e-26 1.0910317835586887e-27 1.0467658946913285e-29 2.2798110177893443e-33 0.018806522078386068 0.017692417104355648 0.015507576504455637 0.012656357454847505 0.009593990407760334 0.006732608734726329 0.004358886697855417 0.0025957993762406695 0.0014190187776943974 0.0007109765775424027 0.00032650062798449657 0.0001375368524898991 5.3229091600146543e-05 1.896858784527902e-05 6.2407314915228305e-06 1.9006870778120853e-06 5.374312529886658e-07 1.414553387096033e-07 3.4744213636759184e-08 7.979558058684574e-09 1.7165040861499216e-09 3.4620152100869346e-10 6.549434972001494e-11 1.1618599644840116e-11 1.9306066117858144e-12 2.999305278070461e-13 4.3435093453634144e-14 5.839378654516329e-15 7.249606820785825e-16 8.255594659086459e-17 8.550017146866553e-18 7.968142317279684e-19 6.593591589073566e-20 4.763129331782949e-21 2.9381024756717586e-22 1.5021510141775735e-23 6.100420353262525e-25 1.8421383041540758e-26 3.674875470742833e-28 3.6503349072852885e-30 7.837801952033319e-34 0.00658535823555123 0.006148118174769554 0.005302272512517248 0.004227738231092763 0.003113247835992193 0.0021130527902873757 0.0013192200848961039 0.0007563144163737485 0.00039785935316866003 0.00019194405613455915 8.499936583577932e-05 3.460228083480707e-05 1.2976561829553754e-05 4.494742227463684e-06 1.442060204827805e-06 4.298421384024701e-07 1.193824890639763e-07 3.0979263808445035e-08 7.530496579269732e-09 1.7182204784555874e-09 3.685926177427163e-10 7.441840628445531e-11 1.4146196132768793e-11 2.530886281525089e-12 4.2567939741751094e-13 6.717525517198546e-14 9.91457015292426e-15 1.3629839748526567e-15 1.7356094139266967e-16 2.0330261668687637e-17 2.1715758360167017e-18 2.0923096508793373e-19 1.793835651396433e-20 1.3450469439365948e-21 8.625383330323216e-23 4.589969154429535e-24 1.9418485765435673e-25 6.111489658240521e-27 1.270725270059715e-28 1.3146024738179252e-30 2.778055558119919e-34 0.0020429678795549637 0.001893362648083101 0.0016076256500107253 0.0012537019291463693 0.0008983568318465632 0.0005910646437384364 0.0003568315900565747 0.00019758413206468246 0.00010036961440465825 4.679946073821179e-05 2.0061452977152366e-05 7.9229496765283e-06 2.8902533297627855e-06 9.767788309277848e-07 3.067867217239195e-07 8.983036557033547e-08 2.4597793043390808e-08 6.316718431216381e-09 1.5252931936393686e-09 3.47055000673736e-10 7.452762751967201e-11 1.5120375604434453e-11 2.899555268749241e-12 5.253044315635639e-13 8.980854703794853e-14 1.4457006834718613e-14 2.1845542887677172e-15 3.084922847531465e-16 4.048557088464597e-17 4.9024739317551935e-18 5.428774220906302e-19 5.436600479364661e-20 4.855974507002742e-21 3.8011537556532314e-22 2.5491206183635524e-23 1.4205642909084775e-24 6.300250949331725e-26 2.0800169191431695e-27 4.537490444162782e-29 4.921881616360504e-31 1.0220501740079044e-34 0.0005629718270222957 0.0005180837975131482 0.00043337432671213574 0.0003309362243888914 0.0002311216326973651 0.00014773851219046437 8.647866272703779e-05 4.6386807666143485e-05 2.282977683561732e-05 1.0324389908035285e-05 4.299477986237206e-06 1.6533529552479283e-06 5.888497769536771e-07 1.9488384201826952e-07 6.013833291130855e-08 1.736051410516083e-08 4.704073126024631e-09 1.1998211649963633e-09 2.888447882179175e-10 6.57804897575378e-11 1.4194004960964174e-11 2.9051127473187275e-12 5.642011415602111e-13 1.0392823982662929e-13 1.813656889841073e-14 2.9914884898777738e-15 4.648788528317457e-16 6.775942657813368e-17 9.210192840965513e-18 1.158917620216453e-18 1.3376563963469347e-19 1.4002840844987045e-20 1.3107719854331736e-21 1.0777532430021657e-22 7.60688710448163e-24 4.468968861868408e-25 2.0921088190297505e-26 7.297102684556783e-28 1.6824012311583945e-29 1.9278263971709932e-31 3.9282319203961016e-35 0.00013809391819903346 0.00012622857954679829 0.0001040885947944451 7.791789806460476e-05 5.3124795404738474e-05 3.3061306613504566e-05 1.8810551274677537e-05 9.80288326695701e-06 4.689001300614411e-06 2.0633401555789897e-06 8.375821152624378e-07 3.146983900365325e-07 1.098083331536291e-07 3.5711117169104016e-08 1.0864640151333351e-08 3.1030411015742848e-09 8.348989370623544e-10 2.1225558688094619e-10 5.1128713238292106e-11 1.1696234380807744e-11 2.545366663805435e-12 5.275532822995129e-13 1.0417531733854836e-13 1.959191560897038e-14 3.5048077386922014e-15 5.94949348248909e-16 9.553013800407245e-17 1.4442546692001712e-17 2.0436916615796837e-18 2.6866981742145124e-19 3.250743297265404e-20 3.57845225942931e-21 3.532516356327614e-22 3.0711087789985614e-23 2.2971634163389938e-24 1.4330234396347698e-25 7.134830579469925e-27 2.649815455774507e-28 6.509227732809418e-30 7.945287361519464e-32 1.586824366156469e-35 3.018918375799652e-05 2.7417092966265432e-05 2.2301866848476597e-05 1.6383387597362357e-05 1.0922122645253972e-05 6.63072009680998e-06 3.675973498577316e-06 1.8661510596188993e-06 8.700668652995604e-07 3.736763852006848e-07 1.4833663156690343e-07 5.463117757047172e-08 1.873711561223295e-08 6.0077084079671245e-09 1.808051909307528e-09 5.126187550624675e-10 1.3741577624057418e-10 3.493894274910172e-11 8.450565648382858e-12 1.948772527464496e-12 4.2929555673776934e-13 9.044574860215833e-14 1.823126769114217e-14 3.514851132565863e-15 6.472902846612649e-16 1.1359964254738404e-16 1.893690583481269e-17 2.984519241609393e-18 4.4202491336499435e-19 6.105274545801705e-20 7.790245287712276e-21 9.074887007325854e-22 9.510955630727272e-23 8.804954729320742e-24 7.03203941162715e-25 4.694875449863086e-26 2.506695064310633e-27 9.9989391783612e-29 2.6407970694894914e-30 3.465796124896119e-32 6.778031523467828e-36 5.886548940552741e-06 5.313458290892956e-06 4.266307607403644e-06 3.0789068077696096e-06 2.0099437497533844e-06 1.1926057802882794e-06 6.456391683517101e-07 3.2009430962315596e-07 1.458685260989263e-07 6.13188845000965e-08 2.3874769726288794e-08 8.645058958890412e-09 2.923457184128547e-09 9.270546368992692e-10 2.7685248578660827e-10 7.816480274781717e-11 2.0942917324196207e-11 5.343000288220289e-12 1.3018255076482308e-12 3.0369872242125947e-13 6.796226074874521e-14 1.4607314428561748e-14 3.0172229012136294e-15 5.987011464444638e-16 1.1399437561949082e-16 2.077594717524558e-17 3.612787542630417e-18 5.965829398414514e-19 9.298054834109167e-20 1.3571838871935808e-20 1.837524189389465e-21 2.2801640356399947e-22 2.554997310663369e-23 2.5376218839752286e-24 2.181110569217887e-25 1.571620955755951e-26 9.078786617611288e-28 3.9260993533910145e-29 1.12580599107258e-30 1.6049251559638096e-32 3.072725891710054e-36 1.0234042175269908e-06 9.183751188945244e-07 7.282873794799276e-07 5.168578176052669e-07 3.308903397480249e-07 1.9223439610875123e-07 1.0184356777536305e-07 4.942512566873266e-08 2.206960783434969e-08 9.105480122816894e-09 3.4868470642443683e-09 1.24489742632974e-09 4.1626532270698887e-10 1.309352985091016e-10 3.891601240682128e-11 1.0974502202985245e-11 2.9480244465737508e-12 7.570102961139179e-13 1.8641161445569953e-13 4.4136350578128764e-14 1.0067323678538355e-14 2.2155978744227324e-15 4.707040469830267e-16 9.651898667794173e-17 1.908096859129972e-17 3.62785737509555e-18 6.612597659492445e-19 1.1500812432232418e-19 1.8967872596438344e-20 2.9434159676508593e-21 4.256027534474207e-22 5.664855222230454e-23 6.837381831812017e-24 7.343911265521162e-25 6.851657871334478e-26 5.377285424167314e-27 3.393640729189935e-28 1.6075446463529844e-29 5.059605174793878e-31 7.924598150062711e-33 1.4850027494084203e-36 1.5842050835267755e-07 1.4137379322464388e-07 1.1079175106099577e-07 7.739557837166063e-08 4.865586589240948e-08 2.772414972729551e-08 1.4401957214716195e-08 6.856838517596481e-09 3.007197042174027e-09 1.2207740231280522e-09 4.60966411947212e-10 1.6270247741428394e-10 5.3939964474117414e-11 1.6875765149951068e-11 5.0058093644761116e-12 1.4139947729607147e-12 3.8190762967338874e-13 9.900047045595898e-14 2.4713264189222256e-14 5.9572612162764486e-15 1.3897099281992481e-15 3.14226613275736e-16 6.891813309418211e-17 1.4660659734672128e-17 3.0218870186823007e-18 6.020795247055395e-19 1.1559544757830276e-19 2.1285813342253683e-20 3.736070980260242e-21 6.201821359237558e-22 9.640849043752303e-23 1.38642974044636e-23 1.8167156680853502e-24 2.128147173936369e-25 2.1749345383963973e-26 1.8775353565923043e-27 1.3082818858888888e-28 6.865359838777884e-30 2.4002731512568293e-31 4.182749568635816e-33 7.673303424452998e-37 2.178118987805592e-08 1.93345328703853e-08 1.4982122927212316e-08 1.0311657736938366e-08 6.373862079193995e-09 3.5677166719878122e-09 1.8205977691749863e-09 8.521004012596941e-10 3.6785530703814034e-10 1.4727018039383692e-10 5.496648292539448e-11 1.9227076551920185e-11 6.335720947338537e-12 1.976576445119208e-12 5.866633052778505e-13 1.6642635074020244e-13 4.531847276247812e-14 1.1892306402649766e-14 3.0179602530395274e-15 7.428813870832312e-16 1.7779024089805186e-16 4.1440665279855634e-17 9.416153636778375e-18 2.085887040149153e-18 4.501344246622775e-19 9.440016782418392e-20 1.9183035840864362e-20 3.7597008236048716e-21 7.06373723841814e-22 1.262254402929233e-22 2.124209995329611e-23 3.3254908687225774e-24 4.769685825610427e-25 6.148595275123032e-26 6.95083810498508e-27 6.670272301837374e-28 5.190766526931351e-29 3.054922546761899e-30 1.202141117010772e-31 2.3634664364881074e-33 4.246826710163785e-37 2.649678947209914e-09 2.3401971570605637e-09 1.7939996577402074e-09 1.2175932562964293e-09 7.408896361761096e-10 4.0798744245345836e-10 2.0486880608784923e-10 9.443842713488741e-11 4.0212522510426374e-11 1.5910695387468896e-11 5.882693665786692e-12 2.0439105366306883e-12 6.709870338608344e-13 2.0922375645509075e-13 6.228495571354595e-14 1.7787982290813635e-14 4.8955527385824035e-15 1.303822019092992e-15 3.3727494997433767e-16 8.501466856993895e-17 2.0934675995042193e-17 5.046048940025151e-18 1.1918666588251428e-18 2.7594953789275935e-19 6.259087329137624e-20 1.3877151671655022e-20 2.999057776470042e-21 6.289481545120937e-22 1.2722637348719524e-22 2.4631427603520918e-23 4.51934551831788e-24 7.762753913090787e-25 1.229263926715408e-25 1.760377386312764e-26 2.224308284164704e-27 2.3999196890956306e-28 2.1117562293890149e-29 1.4127288973231346e-30 6.348481898183614e-32 1.430180749387163e-33 2.5190129173874658e-37 2.836499330588205e-10 2.493184616447023e-10 1.891796486018409e-10 1.2671639549523629e-10 7.598903494622188e-11 4.1223744932069574e-11 2.040158138318085e-11 9.278815117422702e-12 3.90424012567489e-12 1.5296655241869196e-12 5.613903760445618e-13 1.9413919064063016e-13 6.362720023164608e-14 1.9872215992642635e-14 5.9464080745033985e-15 1.7134499618465201e-15 4.776904442321655e-16 1.2942101543965327e-16 3.420971240487237e-17 8.852874504614269e-18 2.2492116273104294e-18 5.622824946689943e-19 1.3849731847694525e-19 3.363085494573965e-20 8.049002382994927e-21 1.8946114537280976e-21 4.375178636597457e-22 9.869231370558634e-23 2.1620954002166062e-23 4.56483459268158e-24 9.19860840927717e-25 1.7476789789455465e-25 3.08322067126594e-26 4.954441466694158e-27 7.074864847594258e-28 8.687576994361562e-29 8.760680295886802e-30 6.7609128030401725e-31 3.5258584355866105e-32 9.260950730137813e-34 1.6003919521131068e-37 2.6522617788160194e-11 2.3205792093917664e-11 1.743701718178157e-11 1.1535725709960272e-11 6.82466260077209e-12 3.652013240494557e-12 1.7839000288324075e-12 8.017520327516618e-13 3.3392654075649197e-13 1.2978088165460088e-13 4.736373671415209e-14 1.633301151091077e-14 5.354133089833981e-15 1.6781518864705116e-15 5.057268568066236e-16 1.473191995013999e-16 4.1690011310069315e-17 1.1514458257160611e-17 3.1168984009771497e-18 8.300182609702132e-19 2.181195164593296e-19 5.670544216004094e-20 1.4608831109265505e-20 3.7328307936413195e-21 9.460838837353789e-22 2.373978861680487e-22 5.884906167385601e-23 1.4353133082362075e-23 3.4254008602877466e-24 7.93932649652637e-25 1.7702245435054622e-25 3.751503808406495e-26 7.443271233281339e-27 1.3563166726888176e-27 2.2147923745656035e-28 3.136353646188208e-29 3.6779776741624195e-30 3.328137380540155e-31 2.050784762971314e-32 6.405424965229753e-34 1.0872000198488229e-37 2.144500140679505e-12 1.8681135228442064e-12 1.3906987794589426e-12 9.093486785842898e-13 5.312541112389161e-13 2.807456740210037e-13 1.3553299617299237e-13 6.028113407362832e-14 2.4889532827072145e-14 9.610921591628028e-15 3.493595314495352e-15 1.2033051689428985e-15 3.951993995260483e-16 1.2451582656273613e-16 3.785614058816031e-17 1.1167613243657607e-17 3.213624336949899e-18 9.064954457237204e-19 2.5178323266729015e-19 6.913841368285854e-20 1.883471950972394e-20 5.1045885909860914e-21 1.379211522427751e-21 3.7195328522496555e-22 1.0017667879477486e-22 2.6901105031612116e-23 7.19035500874633e-24 1.9059267095779282e-24 4.983789076324741e-25 1.2765611926042212e-25 3.173499548409051e-26 7.567363362462759e-27 1.7052683437147807e-27 3.563369390501846e-28 6.738615342973794e-29 1.11622247573896e-29 1.5468671136398439e-30 1.6710903068544514e-31 1.2416182864760314e-32 4.717498908139432e-34 7.873693461756921e-38 1.479157707944209e-13 1.283169264551782e-13 9.467583242552365e-14 6.122902448895177e-14 3.5354529025251886e-14 1.8470190040619495e-14 8.822898392558218e-15 3.888411806519311e-15 1.59376565174228e-15 6.12301756014094e-16 2.2200209100326213e-16 7.648456650502553e-17 2.5203520443316846e-17 7.993940191391894e-18 2.4554425445793676e-18 7.346472482384485e-19 2.152960604873132e-19 6.212258304899