# vtk DataFile Version 3.0
vtk output
ASCII
DATASET RECTILINEAR_GRID
DIMENSIONS 41 41 1
X_COORDINATES 41 double
0 1 2 3 4 5 6 7 8 9 10 11 12 13 14 15 16 17 18 19 20 21 22 23 24 25 26 27 28 29 30 31 32 33 34 35 36 37 38 39 40 
Y_COORDINATES 41 double
0 1 2 3 4 5 6 7 8 9 10 11 12 13 14 15 16 17 18 19 20 21 22 23 24 25 26 27 28 29 30 31 32 33 34 35 36 37 38 39 40 
Z_COORDINATES 1 double
0
POINT_DATA 1681
FIELD FieldData 1
Concentracao 1 1681 double
0.0 1.0296300949499857e-93 4.292789849406694e-89 7.825722868610643e-83 9.332415388344993e-77 8.132282147181552e-71 5.491440770783197e-65 3.004656711537452e-59 1.3783051818152857e-53 5.456485917285438e-48 1.9142255674129576e-42 6.108597524966513e-37 1.8194981465070545e-31 4.61684140576456e-26 6.741018581953274e-21 2.9699074231567327e-16 1.2106724246751178e-13 7.602317358970273e-12 1.5914342978547912e-10 1.5708445300480054e-10 1.5088543936930106e-10 1.3790048342523363e-10 9.726365456516941e-11 7.626597243054916e-11 6.160309513459506e-11 5.1814282800399597e-11 4.478393932309965e-11 3.955081764180763e-11 3.5490727090419395e-11 3.2217299833627953e-11 2.947115330697732e-11 2.707147302931009e-11 2.4886485562297642e-11 2.2816665514053126e-11 2.0784384211894734e-11 1.8727597357370764e-11 1.6596180024928643e-11 1.4363740519897857e-11 1.2403825854939657e-11 2.0853430538321404e-11 1.493482742344844e-10 2.4980869664317827e-93 1.2870386483175772e-87 5.365991466333802e-83 9.782161411486172e-77 1.1665528567846629e-70 1.0165360762087922e-64 6.864306415290442e-59 3.755823795666632e-53 1.7228827752363292e-47 6.820612722848103e-42 2.3927838671161966e-36 7.635752763875941e-31 2.274374484451767e-25 5.771056361232773e-20 8.426279968460174e-15 3.712387248853339e-10 1.5133417415163218e-07 9.502904296809965e-06 0.0001989294449176243 0.00019635572102969228 0.00018860695009706568 0.00017237574172273065 0.00012157966547011632 9.533254047057686e-05 7.700393052133896e-05 6.47679053147823e-05 5.597996893781388e-05 4.94385614768359e-05 4.436344435375133e-05 4.027165696462421e-05 3.6838971104874956e-05 3.383936829518216e-05 3.1108131839357615e-05 2.8520854709231923e-05 2.5980501049252627e-05 2.340951541099081e-05 2.074524161179436e-05 1.795468999542341e-05 1.5504794715292254e-05 2.6066809026332293e-05 0.00018668549207208676 7.28504005965168e-87 3.7484874909722994e-81 4.815289774307743e-80 1.152325470325725e-75 1.294384604273587e-69 1.1168117077261137e-63 7.657224016953365e-58 4.294939544834979e-52 2.0215065459480326e-46 8.164800412615655e-41 2.8889767572071915e-35 9.134802225747403e-30 2.6304939267531963e-24 6.381144105619051e-19 8.597414461781907e-14 3.0031698431000407e-09 9.57264835183938e-07 4.188797513714723e-05 0.0008524789483434889 0.00017787715756051122 4.036630655372298e-05 0.00017308321710207399 0.0001536350418001115 0.00013050203264781317 0.00011370803788902425 0.00010047934151045167 9.022287141806518e-05 8.20605064931609e-05 7.541311345983143e-05 6.983527076007262e-05 6.49921742348771e-05 6.06228517801262e-05 5.6517291094319996e-05 5.250144817807989e-05 4.8427437129421475e-05 4.416558978880861e-05 3.9602737025814746e-05 3.467480047597457e-05 3.030527429012458e-05 5.168502327437385e-05 0.00037195826557391565 1.2619654919090962e-80 6.907039514076192e-75 7.138292613013347e-74 7.128009439599962e-73 1.2327164541709545e-68 9.719141581373376e-63 6.324315847668307e-57 3.434866312316292e-51 1.5793604587282834e-45 6.236301259713732e-40 2.143783688447621e-34 6.498963346397224e-29 1.7569113618523e-23 4.023601865114334e-18 4.941954576013042e-13 1.3987914622708896e-08 3.3001584836591492e-06 0.00012430866124740975 0.0015717914935961465 0.00014773006936968396 5.511579469698785e-06 0.00017455046090416687 0.00016066733198521612 0.0001464606168494554 0.00013309965720544932 0.00012193367926042114 0.00011258279598801205 0.00010476642217495975 9.813329704587714e-05 9.237594738158871e-05 8.722103231595174e-05 8.242786867369682e-05 7.778171187966578e-05 7.308627900193748e-05 6.81593013215337e-05 6.28281347094597e-05 5.693005489281902e-05 5.0365875451302024e-05 4.4491950550902616e-05 7.677060913277197e-05 0.0005554993439942367 1.4560904857868556e-74 8.298661539195534e-69 8.049827564706816e-68 6.710803655897271e-67 5.774523594952349e-66 8.202080431579395e-62 4.845290310572039e-56 2.447367932083443e-50 1.0596051849389865e-44 3.954735978490561e-39 1.2805845220574235e-33 3.617369819510331e-28 8.942128531360191e-23 1.9139955935725504e-17 2.1397891012020554e-12 4.84492376396053e-08 8.839143354841128e-06 0.0002552202548415103 0.00224263546852592 0.00017459087095368235 5.746809460780235e-06 0.0001767667302012183 0.00016613125374959146 0.00015539791571796013 0.00014536268580683044 0.00013634114122661292 0.0001284810297194993 0.00012165523165661804 0.000115684305743894 0.00011035632253782116 0.0001054549939899493 0.00010076457854814799 9.607236303809084e-05 9.116666280307917e-05 8.58355226057742e-05 7.986401416339164e-05 7.303755992088423e-05 6.521232608680668e-05 5.814501019690506e-05 0.00010118727293574913 0.0007368517375120452 1.244794125416522e-68 7.28969016226694e-63 6.972116887541661e-62 5.299153457969931e-61 3.891872841483399e-60 2.9917521309476983e-59 3.8814511516074406e-55 1.7763955297040066e-49 7.061474533504069e-44 2.431466537944848e-38 7.244297488191578e-33 1.8638821074349846e-27 4.119275481167334e-22 7.711134025184788e-17 7.834247040527455e-12 1.4258743036611499e-07 2.0047521281632138e-05 0.0004413536277438797 0.0029312357104044648 0.00018105827274096396 5.853800940189507e-06 0.00017974468032850335 0.00017109717790193 0.0001626020154732053 0.00015463152082725333 0.0001473946994377429 0.00014093771569946795 0.00013521525574411404 0.0001301063723694374 0.00012545152493335723 0.00012106646450541502 0.00011674964175037542 0.0001122866669191796 0.00010744931438788067 0.00010199569684130771 9.566791567711157e-05 8.819570934140128e-05 7.938091330402745e-05 7.133417709540443e-05 0.00012472103275560975 0.000915408517216927 8.338123374704726e-63 4.975342991041723e-57 4.809652193478948e-56 3.457936666970877e-55 2.3005275952974338e-54 1.521598766086646e-53 1.0686806601331497e-52 1.348002800238476e-48 4.807007388171276e-43 1.4911823212710675e-37 3.991515727118719e-32 9.13750568625443e-27 1.765194541001364e-21 2.811117821904744e-16 2.6043477015352565e-11 3.815523815457124e-07 4.1466422660418965e-05 0.0007102105814240388 0.003655657076140494 0.0001839636662455986 5.859422764852033e-06 0.00018356559790179934 0.00017631359087927706 0.0001693250591953443 0.0001628421354726289 0.00015696052976231086 0.0001516955741962248 0.00014699402925110673 0.00014275329206138893 0.0001388313406162651 0.00013505595538109447 0.00013122850983064767 0.00012712684725214816 0.00012250436856560624 0.00011708878620105597 0.0001105781322818329 0.00010264384990709862 9.302455775135058e-05 8.411965590564285e-05 0.0001470776752288904 0.0010903523175949039 4.5660157908755915e-57 2.7623068522158933e-51 2.724018947674601e-50 1.8888312138226395e-49 1.1645969263652865e-48 6.941914715599803e-48 4.1770399473510796e-47 2.877371130748939e-46 3.453380001611538e-42 9.45276315543266e-37 2.225227212366975e-31 4.434244234926109e-26 7.324585081215712e-21 9.708132355663196e-16 8.24957129295009e-11 9.734107598871468e-07 8.205449268400801e-05 0.001099173492101645 0.0044278158086019865 0.000181181618305986 5.78466791692947e-06 0.0001883485060104127 0.0001821440566490611 0.00017627669549153202 0.0001709110055537633 0.00016609680407953214 0.00016181773878969793 0.00015800949451446337 0.00015456692503100836 0.00015134923166636773 0.00014818349417901474 0.0001448663296560564 0.0001411637419164648 0.00013680954326109087 0.00013150125165711695 0.00012489459115449 0.00011660125608510598 0.00010628828313430133 9.655636510979548e-05 0.00016787967701965235 0.0012606510575821689 2.112820070057781e-51 1.2922789376631477e-45 1.3003726784746908e-44 8.764585786268253e-44 5.065976204518977e-43 2.753447986192185e-42 1.4790935215056877e-41 8.646348442582862e-41 5.934219362287303e-40 6.493226858535431e-36 1.3152311080665311e-30 2.2308438404722557e-25 3.076653213104011e-20 3.306010686176239e-15 2.5864022381646746e-10 2.4483101350246567e-06 0.00015940064835811684 0.0016641200626698908 0.005239542513874979 0.00017353846319394692 5.644145646603491e-06 0.00019427921479462588 0.00018891316001143734 0.00018392688595203873 0.00017944958519092947 0.00017550029151982045 0.00017204380206258815 0.00016900273507717208 0.00016626387790668416 0.00016368006996597757 0.00016107117380164413 0.00015822442573724087 0.00015489222820627466 0.0001507892619334072 0.0001455860378805612 0.00013889856824677067 0.00013028039987071042 0.00011931799988545877 0.0001087024475499777 0.00018668293083927046 0.0014250403905425207 8.498446281150118e-46 5.249433288708912e-40 5.353411425736148e-39 3.505439883604581e-38 1.9039733136284256e-37 9.46791210958575e-37 4.5525383348827034e-36 2.351037481248161e-35 1.3335702892576414e-34 1.0995984906347131e-33 1.2730699299125305e-29 1.5760943678166626e-24 1.7201624323292519e-19 1.4453275195300492e-14 8.317181157853086e-10 6.2234830210670434e-06 0.0003090184301346277 0.002484301995981387 0.006058943464747392 0.00016082007393569786 5.449715443605155e-06 0.0002016400877069623 0.00019698232606565837 0.00019272543277548733 0.00018898390164166003 0.00018575742544056428 0.00018299563013524873 0.00018060901014549122 0.00017847359539783407 0.00017643197571765764 0.00017429339679308058 0.00017183342040755085 0.0001687911191863538 0.00016486420571854 0.00015970036254904778 0.00015288177093896032 0.0001439074923535341 0.00013227567055323713 0.00012063239486332291 0.00020301102398101895 0.0015820271507640347 3.0472130188338413e-40 1.9034841718189117e-34 1.941197150240121e-33 1.2245281066623534e-32 6.214805933072375e-32 2.8148063804712564e-31 1.2062098221748785e-30 5.476044856194047e-30 2.673118507567609e-29 1.6045938780178567e-28 4.186731830537619e-26 3.557042152040283e-22 4.853025922274467e-18 1.0165808467210253e-13 2.8845312794903948e-09 1.6332927522811728e-05 0.0006043688834232862 0.003664592265427109 0.006810446913885785 0.00014282592523177492 5.2144980241698736e-06 0.00021087253964219957 0.00020684422122283993 0.0002032183079426351 0.00020010879089450595 0.0001975015341288708 0.00019533256027359596 0.00019349941581088906 0.00019186504202652055 0.00019025924377164287 0.0001884780111833754 0.00018628379990561042 0.00018340258325205702 0.00017951865815072843 0.00017426288892103013 0.00016719211449960536 0.00015775804519400433 0.00014536548886750258 0.00013246064823316532 0.00021641254723753377 0.0017299272877082876 9.92897455772525e-35 6.333245739169466e-29 6.325258859824295e-28 3.780413816460139e-27 1.7674974138528286e-26 7.199082714913522e-26 2.716244729119589e-25 1.0709223299715647e-24 4.440954279448351e-24 2.121483343016202e-23 1.2332095660876261e-21 2.0284423420774154e-18 4.693648868865368e-15 9.103823883452428e-12 1.306689733759529e-08 4.523492080940119e-05 0.0012006443915759419 0.005319427404117258 0.007349442404821322 0.00011949247294615041 4.955249996764155e-06 0.00022269782292768647 0.00021925603849096693 0.00021619906237420192 0.0002136501538621749 0.00021158435422380045 0.00020992338470178311 0.00020855017288180411 0.00020731112106605473 0.0002060193878652465 0.0002044545700757056 0.00020236376364784646 0.00019946001771393472 0.0001954170011830298 0.0001898561766883794 0.00018231954303167688 0.000172224469871065 0.00015888187417724162 0.00014438100813291506 0.0002265468100343524 0.0018669140847594609 2.900484058772331e-29 1.9898162377039767e-23 1.8885331189914524e-22 1.0409651027040904e-21 4.3744309638541804e-21 1.5665502116850555e-20 5.096227441259735e-20 1.7078484788766233e-19 5.890728418229599e-19 2.2321427146666267e-18 3.639196947004655e-17 1.1009501550824516e-14 4.9884106356759085e-12 1.88438635220009e-09 4.7669737168331754e-07 0.00013605734943233493 0.002428910636237739 0.007498329762854234 0.007435546180029223 9.139907047682346e-05 4.694885617658348e-06 0.00023837736346848636 0.000235508043294527 0.00023298587155526167 0.0002309504811366631 0.00022936693281751109 0.0002281412500800182 0.00022713680651036586 0.0002261788955974284 0.00022505791507334798 0.00022353133621747228 0.00022132601569047292 0.00021813950478034635 0.00021363617727121747 0.00020743367682904114 0.0001990726458520248 0.00018795417236635702 0.0001733151341800856 0.00015673206426898489 0.00023328381957181215 0.001991106663782026 5.8717292906503136e-24 4.376421253405427e-18 3.9161136015069097e-17 2.0023112659870782e-16 7.740675274960713e-16 2.536186291652889e-15 7.529705673964774e-15 2.1205422497576622e-14 5.885466350017544e-14 1.727581820564281e-13 1.0032952605295567e-12 4.101713766115882e-11 3.590624035322498e-09 2.7743703941229544e-07 1.5609785282288288e-05 0.000469261415991324 0.004980808219980541 0.00995598642312787 0.0067411781107155865 6.056214248269054e-05 4.462579792780447e-06 0.000260354366308021 0.0002580713018198134 0.0002560757335987979 0.0002545295953142027 0.00025338692938171647 0.000252533316004778 0.0002518052180060948 0.0002509973854406714 0.0002498668530692639 0.00024813816169434315 0.00024550779290972324 0.00024164956091064956 0.00023621316123134862 0.00022881428314645592 0.00021900153689618845 0.00020619440892188017 0.00018957224886259028 0.00017017132471290145 0.0002369310907894102 0.00210072440723256 6.289631341512089e-19 5.137341240558806e-13 4.140275047650106e-12 1.92526466738467e-11 6.658794310634093e-11 1.9564839511173088e-10 5.225198107258163e-10 1.331226719806588e-09 3.3536989235265247e-09 8.620518419459449e-09 2.3627941088274193e-08 8.327754325951242e-08 1.3415018878485783e-06 2.3459034469271943e-05 0.0003351835572762153 0.0029671463559483684 0.010137788513980086 0.011590015548884522 0.004995941093730309 3.1238631569261924e-05 4.288852154440074e-06 0.0002942033048984421 0.0002925600476985485 0.0002911204890222786 0.0002900732843163536 0.0002893579342915984 0.00028882764000624745 0.0002882766530714861 0.00028745004241663837 0.0002860497726998142 0.00028374385974566847 0.00028017570482937967 0.00027497401214650124 0.000267759708929252 0.00025813415250685006 0.0002456536487684176 0.0002297547795045386 0.0002097575614050429 0.0001859381782870694 0.00023819520061545986 0.002194156430796998 7.06350002671618e-15 6.1444435138461815e-09 3.9699605809049946e-08 1.3916636424376853e-07 3.793177217307832e-07 8.756815254281213e-07 1.847653418979667e-06 3.7449543618124576e-06 7.498264213438863e-06 1.5124239905080894e-05 3.123038129869762e-05 6.710991629475224e-05 0.00015381450103090093 0.0007926028321068074 0.0035247311753384913 0.010668754851151518 0.015415726392976436 0.009480437440326183 0.0024338069065674376 1.0322309928379163e-05 4.1919141562392704e-06 0.0003585567670921919 0.00035771832979804 0.00035697477619245675 0.00035655376639999274 0.0003563535220703452 0.0003561583659542512 0.00035566808942027735 0.0003545156356753963 0.0003522770912936218 0.0003484924131340722 0.00034268534065247857 0.0003343880833392642 0.0003231554636823677 0.00030858600178140496 0.00029020117713682444 0.00026749077553247814 0.00023962866358227534 0.00020816533362822177 0.00023980566466906376 0.002270544143019954 2.3956548690100812e-12 2.2584541915335986e-06 1.0185690614546592e-05 3.109703404731349e-05 6.539298865307027e-05 0.00011624220089136138 0.00019357165686395366 0.00031295082660195793 0.0005013565091525827 0.0008065107010855572 0.0013163811630521613 0.002201201075041998 0.003815568487814957 0.007023433937074537 0.012663782497501106 0.015794373294129225 0.010359280740396076 0.003479081769635048 0.0005263654819124131 1.5152318689426372e-06 4.144572616182988e-06 0.0006243125052896267 0.0006254159709056778 0.0006265171810404225 0.0006279158747884887 0.000629236577544006 0.0006298505082665607 0.0006288992619195165 0.000625373535966611 0.000618135800849931 0.0006060143190591215 0.0005879138152239484 0.0005629174418485675 0.0005304756164658533 0.0004902617157466191 0.0004429360388122551 0.00038705965675065086 0.0003248886210559936 0.0002529744686750982 0.0002481586320864188 0.0023291464367808687 1.275776263111574e-10 0.00013247653225090082 0.0005869364074014413 0.0011010034069190715 0.0016065189362265769 0.002159431844898753 0.0027888429368302776 0.0035297889907206026 0.004417877825249143 0.005493749329840189 0.006795282999860208 0.008336707360194576 0.010042799464025427 0.011539910661862994 0.011252097246629443 0.006875772964695746 0.0022789511802329228 0.00044975979065273506 4.3556858971118024e-05 1.4648257409827098e-07 3.929498391691868e-06 0.003541595389627305 0.0035551342433054493 0.003566564681412996 0.0035776045041124548 0.003586258931544723 0.003589049229280167 0.0035813621932704594 0.0035576127869637623 0.0035114149923195885 0.003435808194093772 0.003323547509209557 0.0031676235722245183 0.002961180138717061 0.0027006321243848775 0.0023729223226157782 0.002015377068808163 0.0014493651432888916 0.00102173035129112 0.0004215351487929091 0.0023732615098020385 1.8606959309607765e-10 0.00014511234006229617 0.00019886317166706898 0.0001630602028850211 0.00019393820773329682 0.00020431655776284124 0.00021243548897288467 0.00021582296964127665 0.0002153628181511407 0.0002106906619751364 0.00020112473630504526 0.00018536473050866399 0.00016145342494907074 0.00012657046207533237 7.758169465789019e-05 3.3038751615490994e-05 8.1181063722332e-06 1.2192736413617804e-06 1.4649942184193604e-07 5.722556607131027e-10 3.0951456865131325e-08 0.00010849259122758314 0.00018305608843025248 0.00020438143477460196 0.00020447373253806278 0.00020419038867853647 0.00020262789377511944 0.00020069257269698644 0.00019826253593777107 0.00019533233740804583 0.00019182628030774216 0.00018765545954517083 0.00018266555138562492 0.00017664556723601615 0.00016906544394540752 0.00016041729115517041 0.00014441552780395116 0.00015622925880686992 0.0010298267114654007 0.0005673736103455373 0.0024101493706607195 2.0620681914838817e-10 0.00013950118506212873 4.839725160158574e-05 6.56302756222794e-06 6.862467402345672e-06 7.0351527022895605e-06 7.104394644875627e-06 7.0892495421420264e-06 7.000741373920544e-06 6.845324424992027e-06 6.627544807201375e-06 6.351807734788552e-06 6.026319426565474e-06 5.668531386687452e-06 5.325232793434488e-06 5.112394831819937e-06 5.01726976304824e-06 4.968330008332957e-06 4.589390402686161e-06 3.3430596132804145e-08 3.5373447049119095e-10 7.112072996063152e-07 1.629792275451916e-06 1.7773341195942378e-06 2.1338492418240436e-06 3.047868521243488e-06 4.302256045495174e-06 5.226166171399986e-06 5.629061175810584e-06 5.748920782270897e-06 5.767658603151131e-06 5.7481910612280144e-06 5.708355167264614e-06 5.652658494475034e-06 5.579843259979093e-06 5.485683392660921e-06 5.3488638661928225e-06 9.53733388665129e-06 0.0010396233593879967 0.0006464078834985458 0.0024436623594149423 2.0552544399539614e-10 0.00012747200924744152 0.0001280703983814484 0.0001291950854025112 0.00013089603891144273 0.00013318487234648504 0.00013612503442906896 0.00013980807864901666 0.00014437351423804556 0.0001500281059256135 0.00015708474256871514 0.00016603392797370791 0.00017768676786272737 0.00019349268114902745 0.00021636333107325444 0.0002535356708838174 0.0003377110199913661 0.0008525355849897787 0.005661781159039999 0.00012672105228754083 7.681986594843683e-07 1.7281297964527666e-08 9.426312620676261e-05 0.0012680663482538016 0.006126117648078582 0.013675959058727222 0.015712745033916 0.010702635374105053 0.005650645357178594 0.003207523075934684 0.0021929863637518876 0.0017042468281652148 0.001429034812183004 0.0012584251859060062 0.0011463036708956004 0.0010701296581513288 0.001017906414441661 0.0009827024944631718 0.0009605837728162445 0.0008546117536086619 0.00248132661595824 1.6887320789306845e-10 8.98518252559955e-05 0.00011365981417760537 0.00011892367429861458 0.00012302698889343243 0.0001267810913985732 0.0001307450989336136 0.0001351917951500207 0.00014036314134442186 0.0001465240329447129 0.00015402496085460617 0.00016338246011505595 0.0001754282895090086 0.00019163102603724308 0.00021492630976111416 0.0002525972981049832 0.0003375628178890832 0.0008557097720016157 0.0056855918834617875 0.00021398233539296884 1.757896827644154e-06 1.163540211833558e-08 6.844765503550253e-05 0.0010316981217091206 0.0055253083468417615 0.013309379224263975 0.016057714658752397 0.011196583224955614 0.00592300479196831 0.003339845171030051 0.0022766036145489793 0.0017717776549534864 0.0014922521266544308 0.001323201770455002 0.0012168530928223268 0.0011506086469729216 0.0011144483239755418 0.001103004104230475 0.0011419754386701368 0.0013147523092162606 0.0025272939836462954 1.3165840836042092e-10 7.050248820420055e-05 9.656393424372859e-05 0.00010842375990958489 0.00011509630096095993 0.00012050355194276566 0.00012557735008226117 0.00013084666158473673 0.00013666113571614053 0.00014335096470138555 0.00015130587492572447 0.00016106909001370917 0.00017349181532737417 0.0001900600442619935 0.00021373007164547254 0.00025182982930317834 0.00033750530624149515 0.0008588681651875789 0.0057045864129227 0.00023916644340100395 1.8558791247073246e-06 9.906906234249258e-09 2.4326903832796706e-05 0.0005428574021825168 0.003994542790781918 0.012012740789147392 0.016572839688693664 0.012275413501597521 0.006511255530620118 0.0035923365106142534 0.0024129346938329696 0.0018683942492593265 0.0015745254087099986 0.0014022941223671489 0.0012994402334764019 0.0012426679572318214 0.0012224364419437556 0.0012427004807111016 0.0013359779779134728 0.0016094891507880936 0.0025892185103433447 1.0240738274854248e-10 5.697453143820939e-05 8.41686521738534e-05 9.856424403169774e-05 0.00010769737739256988 0.00011463176392942114 0.00012080485450317975 0.00012689868911894227 0.00013336771964015534 0.00014059881912362694 0.00014901791628250325 0.0001591918990342739 0.0001719890486028639 0.0001889101406203985 0.00021293077203242248 0.0002514219308082686 0.00033778371912257033 0.0008624355896651933 0.005722619918759252 0.00023963671377145348 1.8736167382895465e-06 8.893889535853083e-09 2.7443617985793448e-06 0.00011200603019727965 0.0018131542477075094 0.009082345055621933 0.016722509778688284 0.014098474123606762 0.007583651557598861 0.004021595627723891 0.0026195184454130536 0.0020002549333240694 0.0016777018797982817 0.0014952491571761822 0.00139205351646631 0.0013420320184755771 0.0013366107706260049 0.0013829687487294153 0.001515251733192353 0.0018324480239114273 0.002670630099419368 8.284556281469348e-11 4.795522381893751e-05 7.442193874189566e-05 9.03470988289684e-05 0.00010106980512586274 0.0001093274865334137 0.00011650597689486587 0.00012339254448734066 0.00013050533767076851 0.00013827629181880675 0.00014715985770667002 0.00015774191636409065 0.00017090427628770025 0.0001881591393357733 0.000212496790992371 0.00025132723902870376 0.00033829023273529424 0.0008658649580004166 0.005737453208832808 0.00023976635297980552 1.859481531478321e-06 3.51663690510375e-08 2.1760402649615197e-07 1.721589710409707e-05 0.000538635668105154 0.004811251300063933 0.014789269356800895 0.016673111537474056 0.009491651768624453 0.004750993754063402 0.0029312474105611898 0.002179003938914646 0.001805730670810627 0.0016027088386477311 0.0014932952773493784 0.0014461169475456371 0.0014514026420719465 0.001516780057826095 0.0016750488107052386 0.00201184403155341 0.002770751243831446 6.985631223151017e-11 4.149553130245343e-05 6.6894671951867e-05 8.35005542741057e-05 9.533378188114195e-05 0.00010463639621872144 0.00011270403785247129 0.00012032852206975939 0.00012806054299256594 0.00013635877882018372 0.00014569743397285196 0.00015667516527345806 0.00017018210479748406 0.00018773718086596226 0.00021233858950006832 0.00025142064872796287 0.0003388006613809977 0.0008681450864051706 0.00574462739423063 0.00023850313363274242 1.8667353076257074e-06 0.0004991482166519825 8.390629533549593e-05 1.93101884266059e-05 0.00012013558479506483 0.0019122798373767296 0.00953491898828969 0.016780120689385614 0.012676306109902837 0.006078314381305659 0.0034248115526311594 0.0024282439394009907 0.001966982166812953 0.0017272230241387077 0.0016029992230290732 0.001552941802416842 0.0015637922855035833 0.0016418917794934883 0.0018178148168573498 0.002168102242089821 0.0028882405164655793 6.086858364788964e-11 3.671402005564294e-05 6.094628357866772e-05 7.782809775923063e-05 9.040835456657673e-05 0.00010053971394353024 0.00010937542630160604 0.00011767568332565443 0.00012599321885292238 0.00013479763614863017 0.00014457243889156324 0.00015592217812732478 0.0001697393823711509 0.0001875419257469858 0.00021232596080684153 0.000251526552324555 0.0003390004222179619 0.000867939394887207 0.005738068626818926 0.00023691452380637714 2.70150723221476e-06 0.01036000288087729 0.008966634059272486 0.0049299289045236115 0.002218711974969104 0.0013859423880057066 0.00487264590268312 0.012667265430375645 0.014224431259979456 0.008722654530258863 0.0044971804388577175 0.0027990535642380765 0.0021786735758549244 0.0018749012036277093 0.0017226481949439729 0.0016617588806171282 0.0016720779319212942 0.0017571772691242857 0.0019456295957456689 0.0023088996893008097 0.003020549928990745 5.428454890779586e-11 3.3038470198680905e-05 5.615694533801112e-05 7.308217360899091e-05 8.617635511681716e-05 9.696589697364672e-05 0.00010646412399287755 0.00011537700956378747 0.0001242411955916589 0.00013352294997769735 0.000143705442995031 0.00015539144092472564 0.00016946797902759567 0.00018744366916359086 0.00021229724228245223 0.0002514265933318643 0.00033850170931054065 0.0008636604033701094 0.005710358979912422 0.00023487681534319389 4.691156559391159e-06 0.018910585776725917 0.01916078716450762 0.019173483430754975 0.016918441355155783 0.011209335578771467 0.007478255487079725 0.009619098709543706 0.01294996405536357 0.010945231621794468 0.00665255691076311 0.0037968719614136694 0.0025701681181190396 0.002072170717915398 0.0018566921449485701 0.0017733019055276426 0.0017753561911271153 0.0018614572046321016 0.0020583170108575376 0.0024362426034251483 0.0031644274627945627 4.921068078097889e-11 3.0116681135379996e-05 5.220663533092886e-05 6.90489272831708e-05 8.249852325042557e-05 9.381793776299838e-05 0.00010388842585586543 0.00011335385936972436 0.0001227219066997524 0.00013244497518869478 0.00014299670156554331 0.00015496996082999838 0.00016923787894011175 0.00018728795287944683 0.00021206142355380137 0.0002508659989012551 0.00033686240213305906 0.0008535271192788419 0.005652926806513329 0.0002324037236775403 6.2152921236854e-06 0.013085849080991968 0.013790096568184718 0.015379661779402708 0.018165342791265443 0.019909016175632475 0.0169922940515519 0.013898308629343097 0.013509477547536642 0.012483872315135853 0.009190968039070822 0.005688069037409018 0.0035036598377815604 0.0024785484047354276 0.002059094940832512 0.001904303409644554 0.0018800928839773792 0.0019577792202647906 0.0021576465814031535 0.0025510476131451855 0.003316046617799136 4.512377982949642e-11 2.771379703883145e-05 4.885844293238013e-05 6.554205106147024e-05 7.923554218868644e-05 9.098404565073011e-05 0.0001015489585843019 0.0001115086080188567 0.00012133410374096902 0.0001314550348618648 0.00014232722753783643 0.0001545250902601188 0.0001688984052196685 0.00018689918917242425 0.00021140508217804246 0.00024956410023731175 0.00033360971688378303 0.0008356849493837843 0.005556244697017485 0.00022942802368898784 6.76966878146162e-06 0.006505828179053709 0.0068480700705633515 0.007563600562779145 0.00887892687497276 0.011327354856085256 0.01428147546518886 0.015221439101024857 0.015012987686273613 0.014149105180368346 0.011746878956908055 0.008286436611382416 0.005260836029830059 0.0033833038086220936 0.002470921627766448 0.002104805171588327 0.0020027377086342312 0.002053474366431934 0.0022490416282074837 0.0026574796687458477 0.0034712652398310147 4.169432531756111e-11 2.5667366894288815e-05 4.59292750350461e-05 6.240034197918939e-05 7.62508049557198e-05 8.83438877684422e-05 9.933195136200636e-05 0.00010972706664585675 0.00011995841563306988 0.0001304257911789336 0.0001415592680152633 0.00015390592572520786 0.00016828120892986375 0.00018608474716936895 0.00021009824919686663 0.0002472254322831689 0.0003282692276491661 0.0008084001842982438 0.005410210318509066 0.00022587970920390032 6.910852527419226e-06 0.003822756256233661 0.004004623185482543 0.004307804927777033 0.004787161086296085 0.00556706728449484 0.007129034220001155 0.009869415478796049 0.012292583609709154 0.013572473719638975 0.013072285300701725 0.010750473460610825 0.007655963261652945 0.005011697154579311 0.0033385404622413486 0.0025068558209639376 0.00219109222914313 0.0021607039142316196 0.002333055776727322 0.002752239218556113 0.003625875167415387 3.869899996217598e-11 2.386008863086815e-05 4.3275330443858794e-05 5.9483231812816094e-05 7.34126183401824e-05 8.577132121122498e-05 9.711157666825827e-05 0.00010787960244331574 0.00011845842266923907 0.00012921192548740452 0.0001405372900792829 0.00015294530865776678 0.00016720433787719037 0.0001846419867243805 0.0002079061491694743 0.00024355692767335718 0.0003204099338716724 0.0007702934792267582 0.005204514473624062 0.0002216254083858372 6.936340865286197e-06 0.0027756460432047506 0.0029196433749407074 0.003114669239181244 0.0033751041171468025 0.0037316437663691727 0.0042528051554721865 0.005530760143101662 0.007803614583631039 0.010300631106125495 0.011878218417576004 0.01165395067203443 0.009730215692117145 0.007100697127038977 0.004801874591494906 0.003305467770745118 0.002558144588818182 0.0023207311586446963 0.0024181586765021686 0.002833096332427147 0.0037758221661736 3.597791163292171e-11 2.220448707542943e-05 4.0779399939905124e-05 5.666596592434045e-05 7.059390482889004e-05 8.313593357401314e-05 9.47519673016673e-05 0.00010582225936874124 0.00011668104353617991 0.0001276508693090829 0.0001390892618441041 0.00015146179266420053 0.00016547586666507998 0.00018236454337035594 0.00020459905358405153 0.00023828546669558376 0.00030968595832834124 0.0007205566964637105 0.004929401048936408 0.00021646330364412554 6.920437304294099e-06 0.002260287153455134 0.002401965