# vtk DataFile Version 3.0
vtk output
ASCII
DATASET RECTILINEAR_GRID
DIMENSIONS 41 41 1
X_COORDINATES 41 double
0 1 2 3 4 5 6 7 8 9 10 11 12 13 14 15 16 17 18 19 20 21 22 23 24 25 26 27 28 29 30 31 32 33 34 35 36 37 38 39 40 
Y_COORDINATES 41 double
0 1 2 3 4 5 6 7 8 9 10 11 12 13 14 15 16 17 18 19 20 21 22 23 24 25 26 27 28 29 30 31 32 33 34 35 36 37 38 39 40 
Z_COORDINATES 1 double
0
POINT_DATA 1681
FIELD FieldData 1
Concentracao 1 1681 double
0.0 6.244452817565537e-43 6.186177954420798e-37 5.048234596088543e-31 1.66654400920477e-25 1.3665504664343378e-20 2.3067651106883322e-17 4.197202216218092e-15 2.018266508410586e-13 3.99394444465933e-12 4.165366276836159e-11 2.6801329223143216e-10 1.194829859004499e-09 3.987165549698769e-09 1.0353840868865759e-08 2.1747760443917223e-08 3.748621215448796e-08 5.443381186244234e-08 6.19116765162876e-08 5.336430548482468e-08 5.3604379077868844e-08 5.1534880434428726e-08 3.883632000466317e-08 3.287526634793907e-08 2.9183393404725786e-08 2.679689066084047e-08 2.433903538720397e-08 2.103456491440006e-08 1.7031989232144943e-08 1.4130743264219213e-08 1.555543342767422e-08 2.3370423683133884e-08 3.5124443502713865e-08 4.455857926453715e-08 4.6962118203149006e-08 4.3002483120302325e-08 3.6899411550954685e-08 3.219159047093774e-08 2.984857423226796e-08 2.915240307608861e-08 2.910197852896014e-08 1.5495083123955382e-42 7.805572266409738e-37 7.732728430028358e-31 6.310298293345274e-25 2.0831816780499717e-19 1.7081894404904542e-14 2.8834586784786113e-11 5.246506830003346e-09 2.522835036140037e-07 4.992434454434403e-06 5.206711997538202e-05 0.0003350168722930992 0.0014935385066468924 0.004983960913222383 0.012942311439923068 0.027184722302656974 0.0468578026793221 0.06804231923164722 0.07738965698996375 0.06670543443533072 0.06700552745171513 0.06441865190627298 0.048545438842148965 0.041094115235335335 0.03647927093930064 0.03349614012294125 0.03042381857304035 0.026293227110425286 0.02129000357217041 0.017663443191406898 0.019444307340026203 0.02921305292001576 0.04390558950283583 0.0556982686392507 0.05870269471605446 0.053753146872275503 0.04612430130353939 0.04023952023949703 0.03731074762156344 0.03644053299751384 0.036377502249676286 2.2081310681783503e-36 9.554088708108949e-31 7.222186404089085e-29 1.9924458660142708e-23 4.728573532209224e-18 1.393997868352471e-13 1.478654677046139e-10 2.125166393275201e-08 8.825766121958366e-07 1.5716817537269886e-05 0.00015077780121072715 0.0009019823321576159 0.0037885727692728564 0.012180711049958246 0.030093936318092554 0.05793208499528171 0.08802683495326931 0.10358073307707735 0.08105972103365314 7.165381771013798e-05 2.8624734468941645e-05 0.06802130130101373 0.06441956580973024 0.059631863677730275 0.05681936469562021 0.053953323499728235 0.04955982749272917 0.042642883123340185 0.034345379806933515 0.029065404653862016 0.032975182794467144 0.04808523103913458 0.06728327916486483 0.07870887679961049 0.07635154218032524 0.06437386278603907 0.051298221737486625 0.04254990628896319 0.03863543693552874 0.037628433459481275 0.037614056858396056 1.7794651005358217e-30 9.06479331161955e-25 2.6133467150137042e-23 3.4615820241244887e-20 5.763461362164906e-16 2.022349264259186e-12 9.421197481028019e-10 9.192950496107792e-08 3.045289166112947e-06 4.659171460504059e-05 0.00039950896866147696 0.002186832128832019 0.008494829230973494 0.025407414273318888 0.05655167025360333 0.09436379470678352 0.11848326285957309 0.10783218145518272 0.05662197389429282 2.6291694696764296e-05 2.9568987317983495e-06 0.07548180242831827 0.07329735153532271 0.0721463145998498 0.07053882813155754 0.0674641174757104 0.061261594377259525 0.05163487867680045 0.04118219970039367 0.03609052937005491 0.04273410332377617 0.060371883687476265 0.07835990873969935 0.08434983425992153 0.07526282967730712 0.05836951271493769 0.04305146191623075 0.03381263592610711 0.030023019510148703 0.02917333439613757 0.029213905889539045 5.5942790535880505e-25 3.0808414813249134e-19 6.719903276307553e-18 6.935080168197373e-16 2.0552170447378265e-13 6.352007268818965e-11 9.329353775002081e-09 5.161388361673787e-07 1.2332695208679647e-05 0.00015202866024542958 0.0011133153630253098 0.0053740702766516615 0.018485798287983125 0.04851232343905188 0.09192379173645113 0.12677433369974603 0.12716916064430614 0.08758782132018464 0.03284804086626975 1.3534295628870269e-05 2.7561429670205925e-06 0.08567599533554347 0.0838337190668963 0.08265733055614793 0.08049908158876089 0.07546271714540395 0.06643678012467742 0.05428197038994845 0.04327999478382709 0.04042440812661709 0.0502010370247 0.06803937179019139 0.08150306666514247 0.08065103405889573 0.06629439427552677 0.04737592436667883 0.0323072856619004 0.02394550747544667 0.02076460689355027 0.02014588255101631 0.02022207569194856 3.8100519427234875e-20 2.1919572604792725e-14 1.7313269466300545e-13 2.369065570757741e-12 6.829225722438624e-11 3.1470671324308582e-09 1.371295230901414e-07 3.7803444205859857e-06 5.9169531834982983e-05 0.000548830512218467 0.003251602271247085 0.013183859605026268 0.03859591141813992 0.0836404739458705 0.12902709083221983 0.14266884349225306 0.11236919007281027 0.059053239551464576 0.01622250698636407 5.608221127604242e-06 2.468380222572244e-06 0.0952098550855311 0.09263833246719644 0.08985302532756416 0.08507418353923592 0.07678068870192012 0.06480354981001278 0.05156316096531874 0.04253843023859737 0.0438175111669017 0.05624863372674759 0.07189827257838095 0.07906843466982587 0.07198497580664455 0.054731776433146556 0.03621418292175335 0.022871862022808425 0.015958693159696852 0.013496508898530934 0.013086600888244006 0.013177355388071443 5.495101549286956e-17 3.246673630134014e-11 1.646828013982001e-10 1.0311518098544664e-09 9.930169438246535e-09 1.4088849615104592e-07 2.294651176517588e-06 3.169145857955999e-05 0.00031051090778221974 0.002061166080443391 0.009422578059272702 0.03064748845321955 0.07290395029925285 0.1260329841479803 0.15406104627648595 0.1341567751388612 0.0823181497897673 0.03309823165981745 0.006786691857547912 2.029688877795169e-06 2.1002976902037063e-06 0.09863275929249825 0.0947274256909211 0.08942178843628945 0.08145934217068494 0.07031124400365901 0.057217034418604006 0.04587873464350908 0.041610282338532874 0.04766467261919878 0.06085005239300094 0.07195990390505548 0.07243363309932413 0.06089195925164145 0.04312571588382512 0.02663536049229088 0.015656886326551864 0.010271415299970962 0.008457021658933894 0.008203315048519799 0.008294075193346441 9.064027856923861e-15 5.449033270805527e-09 2.206209575191102e-08 9.559226814882913e-08 5.360334112540065e-07 3.893050105569493e-06 3.219266363520952e-05 0.0002502368117826074 0.0015672775941012547 0.007336401306078822 0.02517512390576008 0.0635641897684638 0.1186352067531636 0.1605651268691407 0.15288516813835507 0.10355871842696023 0.049163566165142565 0.015122795424924219 0.0023260001191300326 6.0661087520838e-07 1.6914869751226308e-06 0.09139385392866908 0.08635833716928226 0.07913425527723408 0.06944103995285249 0.05802416014191858 0.047292204907123804 0.04110280007250691 0.042801133073791214 0.05194333624111267 0.06287706657396315 0.06788262764945577 0.06265642999708794 0.04899832576165199 0.03266022177647076 0.01904826337810698 0.01051193741491538 0.006486507211909484 0.005186943297455827 0.005037383749552896 0.005119935113650041 4.0831512724866594e-13 2.485645952625296e-07 8.760519883936173e-07 3.0655899798173716e-06 1.2603689351709887e-05 6.1013224546230886e-05 0.00031964871823225136 0.0015954731749054669 0.0067601133291826645 0.022624895289851524 0.05784451585281049 0.11141595133140257 0.15977477403885085 0.16669212035968267 0.1219781327102054 0.06357267495727933 0.023168825070155146 0.005427233071330369 0.0006269420606046322 1.4405360508961873e-07 1.3002686310114708e-06 0.07430273427192742 0.06925557002818819 0.06214540368670549 0.05367520149030686 0.0454837813564918 0.04013606625136634 0.04013083638310185 0.0459438868677491 0.05458012643802068 0.060633424530537806 0.05963407380532859 0.0508802660784448 0.03744635028234524 0.02381719873087904 0.013316553357145487 0.006987709007366511 0.004067366497118979 0.0031483810133080383 0.0030624763798538495 0.003133467002333916 7.725140329962535e-12 4.750290276661379e-06 1.5172632093342054e-05 4.617251501422371e-05 0.000155030094695528 0.0005713349290626409 0.002159026358792057 0.007624344401298656 0.02310261947475389 0.056595865256853395 0.10821758853331294 0.15795121371452026 0.172175675769708 0.13581985620922835 0.07554612803241875 0.029964859483296184 0.008302083877691211 0.0014702751468976662 0.00012711430624858823 2.6079035678571954e-08 9.680978718202683e-07 0.054126448422945325 0.050522338494673004 0.04576703708389455 0.04102730593956371 0.037914882300403865 0.03799322488006149 0.041752850368223675 0.047693638308699986 0.05258659171594516 0.053172265315645846 0.048076187892885966 0.03844850150517761 0.02705006789115782 0.016699337658335985 0.009117932418067878 0.004628589934430073 0.0025584711078367912 0.001909192614184963 0.0018592850897504007 0.001918394545605158 7.815928740860031e-11 4.849677259012307e-05 0.00014352052272560177 0.0003955271428234462 0.0011483204236309597 0.0034507889817209226 0.010092144761963054 0.026727101850141266 0.06018195278829611 0.11003346250237213 0.15826832835915636 0.17464649972708693 0.14386968640805764 0.08530827227286805 0.03517282674825657 0.010402607759215558 0.0021542535737033596 0.00028453364162174077 1.823177542774702e-05 3.3800366284799683e-09 6.963924434022403e-07 0.0380387342845743 0.03669711647528263 0.03513772365949087 0.03429191250544991 0.035000645343924185 0.037534348750708095 0.04114218721475773 0.04411447981129676 0.04455902141245308 0.041424818328948065 0.03501983091639471 0.026737799194670064 0.018325613505216606 0.011202772779365851 0.006104656322179529 0.003064782664655908 0.0016288858339536076 0.0011672740273792016 0.0011361947336647363 0.0011846435094963307 4.93459360187263e-10 0.0003089921387133847 0.000856971914244791 0.0021949694477657964 0.005683160678471008 0.014385100742259306 0.03360391045893095 0.06856724833502985 0.11690815816086407 0.1611100344435436 0.17476723843981798 0.14546998254945942 0.0901311169913677 0.039952877624394985 0.012048350454910902 0.0025862953215689787 0.0003915839191797746 3.788311682056885e-05 1.7736208311296622e-06 3.0440367502307796e-10 4.6560775004836335e-07 0.027554457102324844 0.028090046623957154 0.02871964442742777 0.029824073158041357 0.031497236663860326 0.03337196571222366 0.03465140684306504 0.03444187745240185 0.032212678500731125 0.028066227152128375 0.022654287850289816 0.01686384852302981 0.011502690672642856 0.007121708795760411 0.003970406421914853 0.0020254558284003746 0.0010565276566240351 0.0007263239977260491 0.0007043187168803542 0.0007439474937373686 2.220789326000931e-09 0.0014135860099534806 0.003858902016320121 0.009318994066801258 0.021097608737082375 0.04383194081968929 0.08106817916476586 0.12779932624391716 0.16532516886928608 0.17180040860708887 0.1403073768173639 0.08776229337700588 0.04068062788908731 0.013391802705507534 0.002968586782348208 0.00044499602924198353 4.780127155141786e-05 3.304913214875579e-06 1.1078668273026258e-07 1.9811711784931677e-11 2.714038527561118e-07 0.019493176294950003 0.020745342182980978 0.021905079050777213 0.022987652484406613 0.023832284104424253 0.02412990597410046 0.023553529858109656 0.021934351327948062 0.019364739353162994 0.01616208743283718 0.01273513269204564 0.00945027420832362 0.006563472983562237 0.004218417846966965 0.002473967139015638 0.00132424287217897 0.0006991054608488415 0.0004641888621148616 0.0004464118818332721 0.00047917913642412703 7.470310081578674e-09 0.004853050838631102 0.013063301921550278 0.028917196513985638 0.055806412912284685 0.09373023501468306 0.1355443326680039 0.16446486733737678 0.1627478273402896 0.12750723612400505 0.07810130658504162 0.03655112623851723 0.01260249572429345 0.003056857267586839 0.0004930061889875045 4.9416037052065554e-05 3.620230990643383e-06 1.7333164559048654e-07 4.052641702711661e-09 1.6200820081153965e-12 1.2901380341531309e-07 0.01175792543546088 0.012764624699289706 0.013506636903434186 0.01392573062025936 0.01393081521451857 0.013444422332317903 0.012457453272429874 0.011056325128483254 0.009402612196955781 0.007678651391713582 0.006034968239546511 0.0045641229011369805 0.003304960064406085 0.00226412736655159 0.0014405919446345281 0.0008398402507800299 0.0004678722443173503 0.00030668024046115726 0.0002916905684316136 0.0003193654666975541 1.9613116036402385e-08 0.01305514787941599 0.033084021054958515 0.06405760754863359 0.10191200285547149 0.1363014970191473 0.1536881725039518 0.14371273672533522 0.10856315591149632 0.0641079546069004 0.028947022304518427 0.009920437923575056 0.002527082915234672 0.0004476846501575386 5.1857149393844316e-05 3.651834232289411e-06 1.7315974355452006e-07 5.5349828917304495e-09 8.76131309735811e-11 3.3039702495085574e-13 4.6919128940037674e-08 0.005386069693030487 0.00587707383458397 0.006148174582707386 0.006179434349143358 0.005965884748325943 0.005531388862323568 0.00493132557031518 0.004241515905973668 0.0035385844907997194 0.002881665114649688 0.002303833430235678 0.0018134490057571942 0.0014017156131869684 0.0010524326743423635 0.0007517892050051565 0.000498395881586754 0.00030928412427123485 0.00020900013209137865 0.0001977723059629951 0.0002223052851833332 4.084606024874909e-08 0.02780092336031228 0.06346935076439054 0.10150936988626451 0.12889139360555027 0.13493250135963608 0.11781279032682877 0.08469891762206917 0.04874882477285667 0.02165062713572472 0.007203179139897869 0.0017579227912996006 0.000304028103681847 3.897401946387086e-05 3.196786729162626e-06 1.5503169333804154e-07 4.482094722550449e-09 9.212544442848339e-11 9.602694890814248e-13 7.082566620419753e-14 1.211866902163578e-08 0.0017088443724412401 0.0018612453689986549 0.001917501019088389 0.0018798826817624827 0.0017611730453336886 0.00158380717496762 0.0013754929149043414 0.0011628001062949365 0.0009660752967860039 0.0007969908550388067 0.0006591909471074041 0.0005503481659524472 0.00046441322570623354 0.0003930305948003486 0.0003273915044935277 0.00025993397253183507 0.00019229699518397996 0.0001440966446899092 0.00013990391400345802 0.0001629185212552664 6.9546144348453e-08 0.04842613429740628 0.08897857084500661 0.11166864316710687 0.10812811502872863 0.08624487844508483 0.05746209964307363 0.031467935101978164 0.013698100157322257 0.004548712520817762 0.0011109525099789613 0.00019320143643750495 2.2730761781426846e-05 1.8432247621001492e-06 1.0344407272511401e-07 3.386597535436839e-09 5.768284363502584e-11 7.475292265573161e-13 5.105015939800892e-15 1.0045952086492209e-14 1.9724983721181713e-09 0.00033274045528204057 0.00036071481811075643 0.00036591338751232344 0.00035096550950334285 0.00032096737885891876 0.00028227520234306474 0.00024116315537291562 0.0002025318034845073 0.00016947621064929862 0.00014335815401296298 0.00012431929584530294 0.00011185357418219252 0.00010510433909005434 0.00010310703140571444 0.00010378998419202461 0.000105582358018247 0.00010228946156574908 9.604780301184987e-05 0.00010131631490773191 0.0001268102877333276 9.163248104827252e-08 0.06170983469347124 0.08096898696980817 0.06979126840791904 0.04825192888106135 0.02824169608700727 0.014026018355946957 0.005742796131224225 0.0018648344853563652 0.00045806951568913817 8.151822008133432e-05 1.0067852339822406e-05 8.074831497460321e-07 4.184200333453386e-08 1.342234714300656e-09 2.9851393971748476e-11 3.4292927117736915e-13 2.9413757755038526e-15 1.537644667728563e-17 6.868606846118066e-16 1.5230304169407619e-10 3.0019565031501325e-05 3.2343402419106066e-05 3.233935555441074e-05 3.0440920679804415e-05 2.7305337584930584e-05 2.3625644955586606e-05 1.998933270945521e-05 1.679548403781752e-05 1.425982408036788e-05 1.2466224670231221e-05 1.1440519125804737e-05 1.1222677589534275e-05 1.1944878809384599e-05 1.3866051381278639e-05 1.7727871667334495e-05 2.32994522350942e-05 3.841141729929567e-05 4.919796355175953e-05 7.529945543443047e-05 0.00010414822549749479 9.258123433424333e-08 0.05334692260261525 0.00010067876908851358 4.1333816253125304e-05 2.4104703458617073e-05 1.1446913335316108e-05 4.794231224809362e-06 1.6778318566698584e-06 4.723133099274341e-07 1.0207337544263619e-07 1.624675457326612e-08 1.8255073227834713e-09 1.376902951430227e-10 8.113810895291637e-12 7.724708649224528e-13 1.5646476836693778e-13 2.886416698926522e-14 3.4885180222606443e-15 2.0346235792452035e-16 3.4559540549056763e-19 3.333286559292045e-14 4.2840717794459194e-09 7.772319381069676e-09 8.499856396078695e-09 7.740469662782427e-09 6.651692209027221e-09 5.452262329066002e-09 4.3511683545608955e-09 3.437440507139561e-09 2.738859525541549e-09 2.2438664747282622e-09 1.927222914862603e-09 1.7658650250081594e-09 1.7500413688822625e-09 1.879618901089238e-09 2.2174168831137077e-09 2.579117696357328e-09 4.7114356779254966e-09 4.235855926029271e-05 5.8302010370649894e-05 8.793693287905991e-05 9.378738748383616e-08 0.05501820624614526 3.888609020196604e-05 4.0671438335974535e-06 3.875651483140303e-06 3.5761330708387924e-06 3.1485771642567734e-06 2.615792147955692e-06 2.047831917992478e-06 1.5227534550455283e-06 1.0786328465403988e-06 7.129086521351891e-07 4.201881336770141e-07 2.0923378041780694e-07 8.356109633706573e-08 2.538196458771687e-08 5.47601792292376e-09 7.465168950455759e-10 4.8466250342290564e-11 9.738379549159213e-15 1.0279686637857838e-17 7.873152523603369e-13 1.928341260113814e-12 1.9513855125766678e-12 1.7361411303635297e-12 1.4246452652038324e-12 1.1116522146662851e-12 8.405936730136494e-13 6.278319468694718e-13 4.757786446617712e-13 4.0090720768373706e-13 5.282544804322737e-13 1.366984205114126e-12 4.3402726626184306e-12 1.2281187000910358e-11 2.908657245046523e-11 5.770155419172774e-11 2.1727789605786242e-10 3.544167753641597e-05 5.0635522153178434e-05 7.519036587697885e-05 9.309650148648994e-08 0.05344543021475862 0.05753882844813184 0.06656539649508758 0.08124900811411787 0.09985252104700695 0.11627611486458203 0.12141625185845892 0.11034215383844172 0.08784934813193675 0.06424635630682779 0.04566966758027201 0.03131944166587952 0.019064487069757847 0.009370825008607633 0.003448300581585758 0.0008814968169311147 0.00013936808894329735 1.0293304163595553e-05 1.3359408153932268e-09 2.2694278590157049e-13 4.086958643857171e-16 4.181789803736777e-16 4.167477841019071e-16 4.651140194273773e-16 8.244142624079951e-15 3.22234113431809e-13 8.215617239509322e-12 1.3824793022413117e-10 1.593390195220682e-09 1.3017152768381146e-08 7.782929188693978e-08 3.511906838337459e-07 1.2319413285208395e-06 3.4556476691201224e-06 7.953563861870225e-06 1.533857282907746e-05 2.5194078543424914e-05 3.5942409053126104e-05 4.3725131782093375e-05 6.302667297965467e-05 7.998724203647838e-08 0.04075962874933304 0.05569853181420481 0.06621852164038367 0.0816262753623748 0.09978981182158182 0.114562774293512 0.11742364480836313 0.10487651496977415 0.0829317066958858 0.061671100942625345 0.04566415897072768 0.03267984275696377 0.020434138327756646 0.010160495979169395 0.0037478101104776837 0.000955949733507734 0.00015048652248827112 1.1051776420907145e-05 2.4145703758691766e-09 5.537161102709051e-13 1.1402491663273056e-16 2.6978411470884583e-18 3.918193593935845e-18 6.170750524703896e-17 4.3522804514523084e-15 1.921670564872263e-13 5.278334959533176e-12 9.438402219842616e-11 1.1435991706239199e-09 9.733789195643242e-09 6.016931145065053e-08 2.787513238962791e-07 9.974558640959106e-07 2.8366226610758544e-06 6.584740269203406e-06 1.2736260845350624e-05 2.110236529405514e-05 2.9137039116687766e-05 3.835127787053734e-05 5.087249631257259e-05 6.809952536260993e-08 0.036015968926893155 0.053889359010366865 0.06841984395699724 0.08456730581823918 0.10159201165070623 0.1130583363747273 0.11186058442571749 0.09702882054194975 0.07617719512282967 0.058356263716233155 0.04550172677311816 0.03379584434545994 0.021366768845182366 0.010565208160365751 0.0038483650281891037 0.0009674976781414498 0.0001501399535774775 1.0879625103771699e-05 2.601798035320031e-09 5.526635590969328e-13 1.1054215076983581e-16 2.807860664498359e-20 9.641521636495625e-20 1.0305978225514643e-17 1.0804875026285046e-15 6.194023478839088e-14 2.0778985638546066e-12 4.3355496233419063e-11 5.922643538431884e-10 5.536076096168618e-09 3.681830771761243e-08 1.80514658211055e-07 6.743030961133819e-07 1.97965168628059e-06 4.697051130018166e-06 9.257241431650684e-06 1.537500875723175e-05 2.2265857603783566e-05 2.9354545981300078e-05 3.8336263083728603e-05 6.07758181912971e-08 0.03387355504582337 0.05471594212466311 0.07171911514635824 0.08839709278492373 0.10283454425563442 0.10932112776502677 0.1032117145239058 0.08680022070050354 0.06872882584618183 0.05555763707170179 0.04583989447693265 0.03477673168427702 0.02179671067031552 0.0105488799791996 0.0037512488722857744 0.0009221308321557749 0.0001403005847163057 9.992970728087985e-06 2.3167219944934496e-09 4.818583767875454e-13 9.112053098321607e-17 5.591259004810745e-20 1.3626076559899384e-21 3.914587223170783e-19 9.507573240628627e-17 9.60573758383793e-15 4.775337130775241e-13 1.3209245788590877e-11 2.2207041535320698e-10 2.425626859493496e-09 1.8157163827829814e-08 9.741631115908662e-08 3.8966754304766943e-07 1.204079797616606e-06 2.9699625046784805e-06 6.016293801203641e-06 1.0289117736509755e-05 1.5255810647593606e-05 2.06372272121821e-05 2.6679442307786015e-05 5.788931644137463e-08 0.03365533853936141 0.05649221274304458 0.07482832329875504 0.09028660033995918 0.10045079612172056 0.10108348731430367 0.0910483768233134 0.0755994571735204 0.06262018967374641 0.054593005610844375 0.04697108297472865 0.03544458863111165 0.021580021354653783 0.010093869458496437 0.003478765938787538 0.0008329790660820542 0.00012404868289807004 8.681714522839467e-06 1.9339939360965587e-09 3.8529958285926195e-13 7.017819306847097e-17 3.5516351261042387e-19 2.8630941634042837e-21 7.130322775177741e-21 2.842425571575181e-18 4.517207509400533e-16 5.216180407046496e-14 2.4256111481002558e-12 5.769749479056044e-11 8.047185025454171e-10 7.1966438066202594e-09 4.4057994136513926e-08 1.9451208752261765e-07 6.47236976792942e-07 1.6872147824768497e-06 3.5672857895929545e-06 6.310042184654967e-06 9.657199186102785e-06 1.3334097960142229e-05 1.726444789109517e-05 5.651403411273762e-08 0.03366341136554816 0.05726383110950922 0.07496205605618425 0.08727302558297707 0.09220468089527728 0.08816504485351287 0.07753871240650644 0.06667443056260221 0.06023250209809192 0.05611399362106776 0.04849054238198202 0.035343862913690224 0.0205726082479841 0.00923140696888622 0.0030756481381636236 0.000717540679949035 0.00010479785501850873 7.227098943146385e-06 1.5308243882612593e-09 2.914448137301133e-13 5.53289173302896e-17 5.646786888065448e-19 1.0103951912264543e-20 3.3938318432744823e-22 8.476287195007712e-20 2.16207755447364e-17 3.680053437818914e-15 2.388768557687539e-13 9.200539612289239e-12 1.9092219108942058e-10 2.234318210502365e-09 1.6549593858283532e-08 8.391999654616199e-08 3.092249092910507e-07 8.694525756231118e-07 1.9450257411602062e-06 3.5936416998910706e-06 5.688380763698834e-06 8.043406407802955e-06 1.0476771665000602e-05 5.357532576498044e-08 0.03235097147846808 0.05472969282516856 0.06990630027129789 0.0782310213320109 0.0792990688945094 0.07440548214562505 0.06776972055683403 0.06387293122180862 0.06270789480885097 0.059286940333742155 0.049269046685357885 0.03394493519556073 0.018738498680657852 0.008056835408005886 0.00260096559817233 0.0005937340269782956 8.550270779213467e-05 5.8439391908776415e-06 1.1724568955784871e-09 2.1242385596549705e-13 3.4979268818393256e-15 1.4532568862456806e-15 5.151823339814185e-17 1.5313301441608866e-18 5.676754239645848e-20 1.0047526596091123e-18 2.6136198832791717e-16 2.401287735529957e-14 1.2441025752367867e-12 3.3535684045543587e-11 5.103511216912524e-10 5.0169214090411355e-09 3.0949141750484006e-08 1.3117191433077096e-07 4.081724041484085e-07 9.832259141170519e-07 1.917647790271165e-06 3.158321871598689e-06 4.586765387358623e-06 6.03324030583015e-06 4.7830163026353406e-08 0.029115680889363237 0.04874792834069268 0.06105998941748462 0.06709908238485546 0.06822493549203554 0.06715912281520184 0.06706129738696404 0.06858853961692142 0.0683364415972629 0.061752793020207586 0.047959608686019506 0.030964070372730194 0.016219374576422654 0.006713746260613961 0.0021144892108342275 0.00047609081682530464 6.818325014272575e-05 4.659307258846559e-06 8.829781036049999e-10 1.5189711490502843e-13 2.826561887471492e-13 1.5588337002226635e-13 3.582793455630253e-14 1.5979315559658744e-15 9.11309904786119e-17 5.597272736368664e-18 1.8063681652824605e-17 2.3699925488262657e-15 1.6665725126327872e-13 5.829461469786438e-12 1.1139281177101553e-10 1.339765803154433e-09 9.870515855208333e-09 4.887601986932797e-08 1.7448775116699217e-07 4.632873360910618e-07 9.680293851763087e-07 1.6725412971966597e-06 2.5069492381562324e-06 3.3402555846832255e-06 4.269977357161379e-08 0.026131644032901243 0.04396489418304083 0.055693045303506335 0.06303514172609981 0.06787343201529383 0.07202451106231982 0.07587792887909303 0.07727943025826368 0.07276702128608635 0.060807787277589384 0.04378333512872235 0.026573660407014383 0.013310602387067997 0.0053561852959502975 0.0016636423142077257 0.00037371868718179984 5.3856709250120366e-05 3.7234224452817755e-06 6.65569196419941e-10 1.0855004289893528e-13 9.49322901782108e-12 5.967328284159333e-12 2.1272645066279972e-12 3.6261061881961086e-13 2.8192818117909754e-14 2.5315778502015066e-15 2.3400494329286467e-16 2.429399391361953e-16 2.1586108181612198e-14 9.85493340237463e-13 2.3620251748179356e-11 3.459690601564948e-10 3.0278377120121674e-09 1.7397888370616697e-08 7.043578228562516e-08 2.0711247383349871e-07 4.6801545143514067e-07 8.554579606041284e-07 1.3311549745885829e-06 1.8023718186299358e-06 4.656484618000112e-08 0.028606795949012363 0.048678169865037514 0.06298769750030363 0.07338450598080051 0.0810333558161437 0.08609020396652246 0.08734517120036682 0.08282523736889151 0.07155232872802128 0.05504603698479655 0.03700311493981756 0.021352049591603486 0.01035968039040518 0.004108287268902665 0.0012764598921709085 0.0002903267293270124 4.274300323547382e-05 3.035802339024418e-06 5.114737008275476e-10 7.936651077584142e-14 1.7152146436443966e-10 1.1715425199484005e-10 5.2770181624433795e-11 1.5017901024659353e-11 2.186986233737007e-12 2.629475776841154e-13 3.344356779654659e-14 4.254227158786866e-15 3.1662971624235826e-15 1.5982007289672667e-13 4.824579842363883e-12 8.607277743940866e-11 8.938314475323798e-10 5.956312549964326e-09 2.738043643043566e-08 8.95122713733206e-08 2.2007637678856158e-07 4.283457669546064e-07 6.95724715336628e-07 9.608512306148495e-07 6.606532458427745e-08 0.04068728397833404 0.06692948208910651 0.08382537440349323 0.09403999294095923 0.09872464937379935 0.09799308214038448 0.09150279731333569 0.07937809871805984 0.06302986799618593 0.045149309312127794 0.02875975663716782 0.016030805549171388 0.007657544638047919 0.003042991985758553 0.0009622349475316438 0.00022561868272694962 3.457707040170757e-05 2.572272539967306e-06 4.083298340556485e-10 6.445232437872075e-14 1.8994331038708166e-09 1.3762034591221384e-09 7.198621447852279e-10 2.7084785307722286e-10 6.853350002456932e-11 1.0767331044465174e-11 1.8025944618674934e-12 3.0023077861583967e-13 4.9155000755612576e-14 3.217650295525367e-14 9.434887517562982e-13 2.057018590386218e-11 2.541158965420755e-10 1.968853128668861e-09 1.0314883476837524e-08 3.770697459170853e-08 1.016195572410585e-07 2.1230854052673792e-07 3.623616215478153e-07 5.127789293937157e-07 9.653790785884975e-08 0.059538468755939516 0.09110636788771939 0.10596682858515886 0.10999737854163612 0.10632997115600083 0.09680319773407076 0.0828978068195605 0.06631871811588716 0.049112826560326124 0.03332711288644078 0.020481309631946335 0.011229290736473814 0.005378682867867282 0.002182828401178684 0.0007166890998264984 0.00017697883216200155 2.888633984672617e-05 2.3063503343391923e-06 3.447861928136766e-10 8.551168011655219e-14 1.4003109353150639e-08 1.0604391763897086e-08 6.151703376478163e-09 2.7678513168770236e-09 9.456787493935496e-10 2.2789114332292055e-10 4.777350999280929e-11 1.006225179162215e-11 2.0675370415933212e-12 4.139194641193131e-13 2.5268409489315233e-13 4.719003668629724e-12 6.954908896719774e-11 6.298606508538683e-10 3.7836456091865054e-09 1.5583838118499023e-08 4.645248667105103e-08 1.0517538409067106e-07 1.9023081277508524e-07 2.773944976307691e-07 1.2254723278165168e-07 0.075643194514582 0.10645751198100777 0.11374452952437657 0.1084001104221875 0.09625973128811073 0.08072598075387528 0.06406313616019231 0.04796478664190227 0.033697050242985783 0.022053717283811575 0.013316184762012294 0.007315732357831893 0.003582216769511765 0.0015155746319214076 0.0005284445462419395 0.00014089227652783472 2.517734539111095e-05 2.2234859355131574e-06 3.1266864117835705e-10 2.507008010469046e-13 7.30090511415085e-08 5.71893667519377e-08 3.573875643445535e-08 1.8183165054483784e-08 7.523923519560364e-09 2.4656409381399452e-09 6.388964711988141e-10 1.6534712833410192e-10 4.154785804132e-11 1.008484087885332e-11 2.3827269485752793e-12 1.5478054187989202e-12 1.8380863679978342e-11 1.9498950660175637e-10 1.3542328572782434e-09 6.345085424289232e-09 2.11481773304949e-08 5.249428100849677e-08 1.016774475554134e-07 1.53920911661057e-07 1.309833154282384e-07 0.08089258855945324 0.10436674786263572 0.10222747755476719 0.08947829945650436 0.07326277351298484 0.057013742303185934 0.04237616833542008 0.030082235151980233 0.020342747747287414 0.01304140292701021 0.007864266162486273 0.004405267749624871 0.00224737800702899 0.0010125987919834005 0.00038422751258512886 0.00011379554529252785 2.2999327002815886e-05 2.333681615354849e-06 3.0807559841097005e-10 8.977448514465386e-13 2.8258134746597474e-07 2.2712627110563072e-07 1.4981019081619845e-07 8.317780054444789e-08 3.923005257747629e-08 1.562566052458205