# vtk DataFile Version 3.0
vtk output
ASCII
DATASET RECTILINEAR_GRID
DIMENSIONS 41 41 1
X_COORDINATES 41 double
0 1 2 3 4 5 6 7 8 9 10 11 12 13 14 15 16 17 18 19 20 21 22 23 24 25 26 27 28 29 30 31 32 33 34 35 36 37 38 39 40 
Y_COORDINATES 41 double
0 1 2 3 4 5 6 7 8 9 10 11 12 13 14 15 16 17 18 19 20 21 22 23 24 25 26 27 28 29 30 31 32 33 34 35 36 37 38 39 40 
Z_COORDINATES 1 double
0
POINT_DATA 1681
FIELD FieldData 1
Concentracao 1 1681 double
0.0 2.430442655810225e-93 1.0445415366597996e-88 1.9015044596182136e-82 2.2629524618257135e-76 1.9664419395872293e-70 1.3230096389275162e-64 7.205241821999528e-59 3.286183293212613e-53 1.2918665865791883e-47 4.4944998953240345e-42 1.4204349695196872e-36 4.184190573163587e-31 1.0436312468539907e-25 1.4457300454651107e-20 4.553897442659574e-16 1.5608785016118454e-13 9.006938067317732e-12 1.769330656839181e-10 1.7170472918105153e-10 1.6496076354607416e-10 1.5079892965878704e-10 1.0639442086224948e-10 8.345846870413359e-11 6.745161439786118e-11 5.6776462140117426e-11 4.9119709955553913e-11 4.343062609183016e-11 3.9026927264465736e-11 3.5486405666070074e-11 3.25257000043985e-11 2.9947390985091204e-11 2.7607771946222144e-11 2.5398610705797115e-11 2.3236098209937847e-11 2.1054615961836898e-11 1.880511524401063e-11 1.6487825564007292e-11 1.489406312939996e-11 3.004596408326691e-11 1.9197165748271438e-10 5.901413475125163e-93 3.038055750205437e-87 1.3056779317353137e-82 2.3768824760272267e-76 2.8286928402346037e-70 2.458054377827015e-64 1.6537633621214525e-58 9.006559246747052e-53 4.1077322111556593e-47 1.6148344942541208e-41 5.6181293486854444e-36 1.775545073985775e-30 5.230242358837149e-25 1.3045400993020714e-19 1.807164002561434e-14 5.692376357221909e-10 1.9510996878933083e-07 1.1258681586085257e-05 0.00022116650741736698 0.00021463108065521337 0.00020620111939335624 0.00018849881237015877 0.0001329931324722327 0.00010432316787928613 8.431458544894088e-05 7.097063445160892e-05 6.139968656415234e-05 5.428832590678865e-05 4.878369810750943e-05 4.435804251974589e-05 4.0657157531198136e-05 3.7434268609141346e-05 3.450974254054963e-05 3.17482887808571e-05 2.9045145998520518e-05 2.6318290991936985e-05 2.3506412842512843e-05 2.0609798421955424e-05 1.8617593797157767e-05 3.755748515004772e-05 0.00023996476373598156 1.7197715315764706e-86 8.8460602150313e-81 1.1443767979131067e-79 2.831382976723217e-75 3.175871603130678e-69 2.734490043396002e-63 1.8695870352951269e-57 1.0448174624559403e-51 4.8948969258352645e-46 1.9656850079187373e-40 6.906564323068874e-35 2.165465438069351e-29 6.173383401806789e-24 1.4748777940225242e-18 1.8943992915998445e-13 4.6020314940639465e-09 1.2325649246112112e-06 4.9549521415885453e-05 0.0009451694006282359 0.00017749713457143802 4.032030718507028e-05 0.00018931701440738128 0.0001680988632226433 0.00014285629654079703 0.00012455033389017396 0.00011014877288142741 9.900367500211796e-05 9.015533338790057e-05 8.297110724995904e-05 7.696458942674923e-05 7.177040486536126e-05 6.71040464255678e-05 6.27369837777832e-05 5.848056510855162e-05 5.417595309252294e-05 4.968707490617961e-05 4.490469439816841e-05 3.983138922445783e-05 3.642874040576052e-05 7.450447153884323e-05 0.0004777793463418685 2.9765105000968225e-80 1.628859577085728e-74 1.6946838832738288e-73 1.7072323869912007e-72 3.0559230032704335e-68 2.405122668090866e-62 1.5613070812541744e-56 8.453567910286722e-51 3.8716633209511e-45 1.5212115764510527e-39 5.197138778801274e-34 1.5635743065437472e-28 4.1873821690415856e-23 9.460654711006579e-18 1.1123608982691212e-12 2.142122699591552e-08 4.243561573925531e-06 0.0001467576559041905 0.0017396718492317686 0.00014701639828765167 5.436339877271596e-06 0.00019101499146463217 0.0001758750433556603 0.0001604045045972873 0.00014586953883934646 0.0001337451769637773 0.00012361619691077626 0.00011517638592493708 0.00010804243398489711 0.00010187908726707995 9.638858055340626e-05 9.130911049346948e-05 8.640768795623195e-05 8.147237751972733e-05 7.630839053696175e-05 7.073578159401204e-05 6.45986273942354e-05 5.789723946165262e-05 5.3529788059566966e-05 0.00011069256172115577 0.000713041504345708 3.42999391711712e-74 1.954688936489349e-68 1.9090580545164385e-67 1.604154937186538e-66 1.395097136330273e-65 2.0488740805023438e-61 1.2077418821926838e-55 6.083457791991778e-50 2.6246306071356193e-44 9.752398656073869e-39 3.140267342988203e-33 8.807881685707786e-28 2.157731712236509e-22 4.563289097521373e-17 4.904188589837031e-12 7.414348881955107e-08 1.134785553143254e-05 0.0003007425166407839 0.0024769742592514366 0.00017333111370235963 5.650627949144216e-06 0.00019358197634060503 0.00018198869971958008 0.00017031605271376475 0.00015942778284300658 0.00014966416657095983 0.00014118622302609373 0.00013385518135589392 0.00012747561522853177 0.00012181690596814634 0.000116643988158881 0.00011172278976832267 0.00010682322858559574 0.00010171757525797789 9.618033017568354e-05 8.998856801842467e-05 8.293739479915555e-05 7.501380545440126e-05 6.999980010157055e-05 0.00014588782994472303 0.000945174989250547 2.9273267836264098e-68 1.7142016762332268e-62 1.650880048438085e-61 1.2644453648175063e-60 9.373475543067173e-60 7.2986713751074555e-59 9.765080053029283e-55 4.4579306258412694e-49 1.766505162554316e-43 6.058245938342365e-38 1.7957691968100934e-32 4.58981340355482e-27 1.0055492485147342e-21 1.859967582234567e-16 1.8236877155095228e-11 2.180296268005757e-07 2.5688463265868638e-05 0.0005189061478589397 0.0032291403431331522 0.00017925322349440347 5.742941104110407e-06 0.00019703503304464628 0.00018761065530308594 0.0001783852275565664 0.0001697598530312953 0.00016195946623481338 0.00015503279057655628 0.00014893010775251188 0.0001435197334355074 0.00013862831911321663 0.0001340559594337432 0.00012958440113982706 0.0001249822845685711 0.00012000476044569705 0.00011439537588241733 0.0001078876025233332 0.0001002235153391452 9.136493226012107e-05 8.589865280684243e-05 0.00017973050441548954 0.0011734154902482072 1.956751850087379e-62 1.1675541443936996e-56 1.1365228323138958e-55 8.232271015494484e-55 5.525094112603158e-54 3.6948915723356595e-53 2.636417570035596e-52 3.413057347191078e-48 1.2135695202810972e-42 3.7507755203081243e-37 9.992282341339273e-32 2.273157246209148e-26 4.353911692061789e-21 6.849262371473971e-16 6.147674652356187e-11 5.828739856254618e-07 5.300778418721385e-05 0.0008326502489240728 0.0040142922481523355 0.00018153588600006065 5.739526513831283e-06 0.00020147201807502041 0.00019356913726538964 0.00018599007145945074 0.00017899524263961753 0.00017268589257360726 0.0001670769966763443 0.0001621097188218693 0.00015767211117555341 0.00015360973803750497 0.00014973572938973407 0.00014583506959483923 0.00014166822159262702 0.00013697107532568964 0.00013145566220867534 0.00012481075763060562 0.00011672263109465891 0.00010711586067952447 0.00010126774782553356 0.00021172917342373145 0.0013967347322426332 1.068902469482678e-56 6.466406526609353e-51 6.420980330280995e-50 4.484384506866861e-49 2.787702569658117e-48 1.6784747554252007e-47 1.0234769029121572e-46 7.215406750090164e-46 8.79338972715997e-42 2.398657541876476e-36 5.6214143840404075e-31 1.1134881427908375e-25 1.8238131714346255e-20 2.386815930024173e-15 1.9726365815193814e-10 1.4853344685808108e-06 0.00010457497301725835 0.0012840471218190411 0.004842666321964602 0.00017807637565119434 5.6607817116042965e-06 0.00020703647507049172 0.00020027497305896081 0.00019392101585027162 0.00018815117037909748 0.0001830170501791363 0.00017849886862462874 0.00017452534055148334 0.00017098126100592977 0.00016771303198015848 0.00016453255155660226 0.00016121930360469297 0.00015752080539719687 0.00015315213306484144 0.00014779394928526572 0.00014109234737465367 0.0001326761683428652 0.00012242004605124359 0.00011613489672202976 0.00024125474289952704 0.0016138366143712195 4.9323946129977555e-51 3.0167809971617886e-45 3.0564848835959464e-44 2.0742695365408877e-43 1.2080694144334697e-42 6.625660771577893e-42 3.6009105966696973e-41 2.1466574550684297e-40 1.5312517339104146e-39 1.667098796223716e-35 3.354848390440422e-30 5.653905138582771e-25 7.730591824288619e-20 8.196751604838158e-15 6.261575822046152e-10 3.7308660596813876e-06 0.00020235436704025143 0.0019350388229367732 0.005701081286836879 0.0001697065890917266 5.521145206107221e-06 0.00021395270341290556 0.0002081043644379641 0.00020271331751932112 0.00019791831333242012 0.00019373755269452275 0.00019013050805206483 0.00018701109679688686 0.00018425457029924025 0.00018169951433713528 0.00017914904301477978 0.00017637162185650998 0.0001730994891212709 0.0001690271318417881 0.00016380724557489289 0.00015704618663042556 0.00014831703795515754 0.00013742966649841573 0.00013052582545673312 0.00026756449618105005 0.001823136286953293 1.9779660803637757e-45 1.2217553633182043e-39 1.2543335401647437e-38 8.266911412098209e-38 4.521344738510467e-37 2.266310484027048e-36 1.1006402493064563e-35 5.779308094653154e-35 3.384301554530273e-34 4.621524421336957e-33 5.820334973080369e-29 4.748340007721694e-24 4.552048416566905e-19 3.658944831125711e-14 2.0387593619426524e-09 9.468692268951129e-06 0.00039027390866816817 0.0028713038711232993 0.006548716970700215 0.00015624502105824752 5.33254379157678e-06 0.00022256283736316997 0.00021748605848916937 0.00021289262863594252 0.00020890596529729932 0.00020552316387997788 0.0002026866993612598 0.0002002964295301355 0.0001982147031002379 0.00019626752284417296 0.0001942449303441978 0.000191901285608557 0.00018895336541890104 0.00018507710312931145 0.00017990171493437542 0.00017300039836682372 0.0001638943792306952 0.00015231411869725303 0.0001444828453986355 0.0002898532304267043 0.0020227657253981653 7.069450802527586e-40 4.415956573811048e-34 4.5328993523041695e-33 2.876789843030369e-32 1.4691225438222304e-31 6.699522807107355e-31 2.8945024391874097e-30 1.331941178541776e-29 6.666424030740631e-29 5.150297662077523e-28 4.689970539238918e-25 3.3419916308574164e-21 2.856983087849931e-17 3.280389103264451e-13 7.1675483675340204e-09 2.4804959416702414e-05 0.0007580135765245761 0.0042012855253946045 0.0072956319452015285 0.00013755908695991764 5.10822616455853e-06 0.00023340451480971029 0.00022901404804528285 0.0002251114691515194 0.00022182035307691692 0.00021912241326231796 0.00021694444053052113 0.00021517081358954165 0.00021364781843607507 0.00021218540811655738 0.00021055689306253387 0.0002085002316181348 0.00020571634971675758 0.00020186613115589719 0.00019656182474725475 0.00018935302513783397 0.00017971696556552907 0.00016729237749096412 0.0001580974757262093 0.00030733898062557623 0.002210622562392015 2.2957644725407964e-34 1.4643924618526734e-28 1.4717530214987976e-27 8.845369416841364e-27 4.1579763742094816e-26 1.703102975046813e-25 6.466729393743153e-25 2.5758311567252985e-24 1.0875759712148656e-23 5.833435288627085e-23 9.464941516206346e-21 1.4747898073768783e-17 2.5261021018870683e-14 3.446783539855292e-11 3.308313487952356e-08 6.856927273010806e-05 0.0014914062197977844 0.0060307666505261814 0.007777192030405095 0.00011371310384506075 4.864925883658815e-06 0.000247362284941082 0.00024361270986040425 0.00024033439066273912 0.000237661749517851 0.0002355640127259685 0.0002339508893526001 0.00023268875875572683 0.00023160314472762096 0.0002304827323209673 0.0002290796310074304 0.00022711190561525976 0.0002242640044531274 0.0002201842580731037 0.00021447604631045543 0.00020667730765727149 0.0001962359702556005 0.00018269223680342843 0.00017156248315229817 0.0003193911753945213 0.0023844310749934457 6.681141505904644e-29 4.585465477637194e-23 4.378068310497897e-22 2.4253007245541153e-21 1.0238029280289728e-20 3.6823141542818237e-20 1.2032247591647113e-19 4.0599415184670444e-19 1.4159096453785953e-18 5.594874435644011e-18 1.7686574725560352e-16 5.5891967988362466e-14 1.9831796845596568e-11 5.656994767167059e-09 1.0670662762495316e-06 0.0002059486632050244 0.0029746408452007004 0.008365782193059064 0.007731834728252243 8.549560873559066e-05 4.624953226284824e-06 0.0002659971899291387 0.00026287562302880734 0.00026018632041351287 0.0002580823736050668 0.0002565208216816557 0.00025539193476602196 0.00025453749084382575 0.0002537559672644811 0.0002528065665691191 0.0002514123861521655 0.0002492647521050267 0.0002460275543752832 0.0002413372298228268 0.00023479421723905165 0.00022594041122457102 0.0002142157231449582 0.0001990796079067418 0.00018525762443985904 0.00032567299163781114 0.0025418532111649962 1.3417479487855795e-23 1.0009450779255804e-17 9.00989659297551e-17 4.628652605332529e-16 1.796833594906484e-15 5.909982222416619e-15 1.7612930443732302e-14 4.979865174478848e-14 1.388359231430957e-13 4.10147676061001e-13 3.032449241549655e-12 1.4200331286141278e-10 1.0391408675580553e-08 6.515115225856078e-07 2.941263494010291e-05 0.0007095628231645268 0.005963124666406658 0.010839609378244793 0.006827434783657021 5.5199752375974014e-05 4.415668750287883e-06 0.000292371008064141 0.0002898971123504979 0.00028779182960126553 0.000286233507513704 0.00028516490016784 0.00028445015815944637 0.0002838964585320185 0.0002832626194641183 0.00028226421340790225 0.0002805808709327905 0.00027786357990438676 0.0002737445014267238 0.00026784073868388715 0.00025975146279705487 0.0002490339994827004 0.00023516215155547436 0.00021753476884031804 0.00019995676710053657 0.0003264932053216812 0.002680681873937188 1.4070980035684655e-18 1.1510448090206183e-12 9.336353148265238e-12 4.3636001336822765e-11 1.5150831137315295e-10 4.466593392548033e-10 1.1964787532672092e-09 3.0567826597453633e-09 7.72172622113933e-09 1.9903761992730665e-08 5.472683159584959e-08 1.938082093061769e-07 2.8239639263162895e-06 4.304510988594171e-05 0.000527254675115065 0.0039685678408485645 0.011636861842359118 0.012117594279373037 0.004848479932167266 2.7306399792855965e-05 4.263808115806056e-06 0.00033363949563185576 0.0003318826111091675 0.0003304040517979232 0.00032941222930499406 0.00032882982485669347 0.0003284783322150631 0.0003281092277391208 0.00032741549637206157 0.0003260395393831282 0.00032358576726446506 0.0003196345784399522 0.0003137586827265517 0.00030553813656473896 0.00029455687852992374 0.0002803904108417056 0.0002625530079345422 0.00024061993957330002 0.00021719472400230262 0.0003225999880878316 0.0027989255885391994 1.1049170052525412e-14 9.61169727993963e-09 6.210632588874376e-08 2.1772175400506738e-07 5.934576933178841e-07 1.3701013448338089e-06 2.8910343891666203e-06 5.860310078752439e-06 1.1735639254649293e-05 2.367838003054002e-05 4.892289952765371e-05 0.00010525910264614331 0.00024199199657627825 0.001151392568915038 0.004634541670128347 0.012503464612557424 0.01619445370907827 0.009176802500918974 0.00219007458943342 8.440218888811846e-06 4.181629035187853e-06 0.00041575419495767495 0.00041494422797911295 0.00041430206661158134 0.00041407935126533147 0.00041413799424951797 0.00041420060582749216 0.0004138839296745754 0.0004127210289310878 0.0004101755610647227 0.0004056716873021646 0.0003986249546010508 0.00038848137669422636 0.0003747453786412197 0.00035701980712469545 0.0003348777358793646 0.0003079629821053184 0.00027577082048535316 0.00024207013791463391 0.0003179980623655443 0.002895541465138507 3.029741133884482e-12 2.8550446287843206e-06 1.2863891070026585e-05 3.922665956457842e-05 8.238986262914837e-05 0.00014623875679196314 0.0002430610346249771 0.0003919946279088472 0.0006259720845774937 0.0010027074607633574 0.0016272954257240812 0.002699810652180477 0.004628220748001263 0.008385558481081284 0.0142032656692117 0.01629973057912998 0.009755249436834795 0.003044029410518624 0.0004298155408519826 1.141245472619861e-06 4.1357343621225225e-06 0.0007893379631686126 0.0007911434581517923 0.0007930484428535202 0.0007953875333828878 0.0007976120292278964 0.0007988297712806509 0.0007978296022597677 0.0007931917146953154 0.0007833229365775236 0.0007665964959874486 0.0007415196116102496 0.000706893446253593 0.0006620995357785001 0.0006069277276336369 0.0005426720952592377 0.00046800553510591587 0.0003870324721808862 0.0002979223004911664 0.00032016312616635226 0.0029696286578771293 1.443860637108864e-10 0.00014978009649375355 0.0006623942379722491 0.001241052460409956 0.001808149674175242 0.0024258267535649716 0.003125300149022909 0.003943356966773946 0.004915562668913204 0.006079893394624992 0.0074655457144528455 0.009065302072381225 0.010755496648359043 0.01205625007829896 0.011098850741903513 0.0063482833779992635 0.001951144970166169 0.000359357449459984 3.256565515848138e-05 1.0214355504196683e-07 3.86933174928432e-06 0.0043896908188185155 0.004406649889176281 0.004421029878724177 0.004434963857563225 0.004445993528953546 0.004449828785496563 0.0044407764479122555 0.004411936167408539 0.004355400391314958 0.004262518357753286 0.0041242351418952035 0.00393171306699017 0.003676216304087702 0.0033529718020248863 0.002945381944489379 0.0024995784351468224 0.001792413391346073 0.0012583514047781357 0.0005312010340265619 0.003025381651855058 2.0624628907628762e-10 0.0001592885657412284 0.0001986482107289557 0.0001625799414045688 0.0001930614363348467 0.00020301060245643665 0.00021060388411101074 0.0002133619138845168 0.00021213734506118518 0.00020653533516019066 0.0001958451147782085 0.00017876127356508835 0.00015340178026691066 0.00011728767077600583 6.867226760566255e-05 2.773000489314931e-05 6.3937200519380605e-06 9.028390204555382e-07 1.0215972143443876e-07 3.7524966801092857e-10 2.7952447058232514e-08 0.00010681598765656516 0.00018024657365290137 0.00020125286631458514 0.000201336330678705 0.00020105161175711485 0.0001995118153197573 0.0001976145325140127 0.00019524467707424456 0.00019240213603641067 0.0001890173074001286 0.00018500668878292548 0.00018022043586752125 0.00017445037515636437 0.00016716695369161977 0.00015885543793481887 0.00014323746296737033 0.0001553709638765718 0.0012685507318586512 0.0007085896691537598 0.003071987628529917 2.2737698630718135e-10 0.00015317514377402155 4.8357736687956356e-05 6.4805931269077035e-06 6.7561915575820645e-06 6.9106013478195385e-06 6.9665215284106995e-06 6.942321814660231e-06 6.84883189241735e-06 6.692655241231663e-06 6.478857297245848e-06 6.212837720909231e-06 5.904312702767313e-06 5.572852302670425e-06 5.267250918417884e-06 5.087717701850339e-06 5.009619873655553e-06 4.955798533351034e-06 4.492640061386423e-06 2.9934220982883015e-08 2.9553383738661385e-10 6.422995281511498e-07 1.4708754758289033e-06 1.5930286506260639e-06 1.8750004501246153e-06 2.6676840663448897e-06 3.879518628115836e-06 4.881418421163658e-06 5.374099137892149e-06 5.542839216010237e-06 5.585861576887697e-06 5.581939946681539e-06 5.554841385199187e-06 5.511321091082814e-06 5.451267970080065e-06 5.371296794310482e-06 5.251310486512651e-06 9.436994864943254e-06 0.001280893301316906 0.000810117245931142 0.0031143187287801613 2.2617312342544976e-10 0.00014000367965293943 0.00014070571974385366 0.0001420267095772277 0.00014402636064567094 0.00014672019250554675 0.0001501854979457629 0.0001545337705580761 0.0001599347773574794 0.00016664056650130156 0.0001750338359574253 0.00018571775826135544 0.0001996977779602714 0.00021879187606076403 0.00024672169954880906 0.00029319445676625246 0.00040762049268578375 0.0011452625852849542 0.006911160295349902 0.0001240324700099705 6.878591140865116e-07 1.3787553591903851e-08 6.784259651135605e-05 0.000998704643206499 0.005318360107231082 0.013194629970254522 0.016939427206576728 0.012784019498045458 0.007181655282377794 0.004109855260759629 0.0027836982724236316 0.00214876752327653 0.0017940236755189082 0.0015750278622409513 0.0014314659746886133 0.0013340927134580613 0.0012674124127926272 0.0012224993858164833 0.0011945062653243208 0.0010770998329672561 0.0031618795985868873 1.8572092041825656e-10 9.871849789851852e-05 0.00012492062792520786 0.0001307829808949373 0.00013541723932908027 0.00013971595324381662 0.00014430166114110652 0.00014948480621166044 0.00015554779752770698 0.00016280662196095725 0.00017168549897816638 0.00018281656372738956 0.00019722867624894907 0.00021676229194839098 0.0002451687746930731 0.0002922188400680935 0.0004076658556411992 0.0011500106747336556 0.006940331146937951 0.00020946342361916157 1.5739601826909683e-06 9.164003221346873e-09 4.861976043832181e-05 0.0008022775497455621 0.004740511468400856 0.012708950569785566 0.01717082719835845 0.013307254630750607 0.007517221510109686 0.004281269702954373 0.002892163752748541 0.002236474196490368 0.001876472125256338 0.0016598923141041527 0.0015242682349809575 0.0014403210992630364 0.0013952027890795275 0.0013821247659459683 0.001435325201865302 0.0016664779260999742 0.003219904635045424 1.4478415601591132e-10 7.750044097825314e-05 0.00010619377745807168 0.00011930992370816999 0.0001267658923709199 0.00013288011233009001 0.00013868366040021153 0.00014476936557826178 0.00015153795757826482 0.00015937733471636716 0.00016875497449235881 0.00018033266744109627 0.00019516127983986706 0.0002151018080372113 0.00024393178120432293 0.00029148629631279356 0.00040789123465125656 0.001154843639408789 0.006963657444354785 0.00023412377539459123 1.661559599443739e-06 8.023096491808503e-09 1.6606999567373466e-05 0.00040717635273654324 0.0033195974453645474 0.011168405521782002 0.017365501385759353 0.014412987205772713 0.008236039089460096 0.00460918817370111 0.0030690888945137714 0.002361418525051779 0.0019829816123096643 0.0017625261583556588 0.0016316729467736343 0.0015602188475331241 0.0015359104862144705 0.0015640092760120046 0.001687050758294653 0.0020435141483462578 0.003298034707458859 1.1266596750025153e-10 6.267506165288038e-05 9.263427380230045e-05 0.00010855046578236825 0.00011871799719847009 0.00012651415868448416 0.00013352858619378608 0.0001405227546668052 0.00014801308846458031 0.00015644996345909386 0.00016634085482749946 0.00017837387869186448 0.00019361932227447134 0.00021395587455296127 0.00024318617902559423 0.00029121021472414225 0.0004085772779490777 0.0011602882377965168 0.0069858693838122975 0.00023457439639108741 1.6772604204512323e-06 7.349490184833472e-09 1.742283441863539e-06 7.798213812127219e-05 0.0014154500209534323 0.008028117993006371 0.01686904272708769 0.016170924253784656 0.009522480234152636 0.005166305885245221 0.003337547262269533 0.0025316294887248077 0.0021159896267854477 0.0018824526940560023 0.0017512965590778182 0.0016886615785253025 0.0016835008064632344 0.0017451761474214854 0.0019178158411841855 0.0023281795309353687 0.003400685460002224 9.122115203040805e-11 5.280309766906575e-05 8.198870466207244e-05 9.960445535626966e-05 0.00011153222589291564 0.0001207924054168623 0.00012891935697407879 0.0001367914038050187 0.00014499549529048699 0.00015403187202104294 0.0001644395687698049 0.0001769278549827124 0.00019258247685952253 0.0002132960441045256 0.0002428910314098525 0.0002913285086895246 0.0004095652121981255 0.0011655411842806636 0.007004312551425852 0.00023469356386015988 1.6644124187388116e-06 2.7173643145484557e-08 1.2974737370167572e-07 1.1203609758740778e-05 0.0003929611835260247 0.003968883852092177 0.01393034359499873 0.01831947665500101 0.011729519413732003 0.006108553536799709 0.0037436693705467615 0.0027623574664243523 0.0022806701232680904 0.002020589907552388 0.001881478178651237 0.001822538540491571 0.0018311297904751588 0.0019170883718211363 0.0021225399538306873 0.002556643100960847 0.003526825711010059 7.700784629135609e-11 4.574432690427143e-05 7.378646898144473e-05 9.21734814736832e-05 0.00010534003451707873 0.0001157633673031913 0.0001248799232229438 0.0001335739123847645 0.00014246864837230892 0.00015209406520007418 0.00016301107589507182 0.00017594313472537896 0.00019198545917793492 0.00021303899015322417 0.00024293764190909877 0.0002916842717879454 0.0004105454363882728 0.0011691454472948037 0.007013654968833705 0.0002334552601215344 1.6665457680144265e-06 0.0004111622295344735 6.365620823071917e-05 1.3604007870693621e-05 8.26026856983394e-05 0.0014913862616035957 0.00848894673348066 0.01738342034202098 0.015065404237090888 0.007798485972242672 0.004388948130376836 0.0030846038493713853 0.002487945308186056 0.0021803091732854932 0.0020221091196934277 0.0019594458467593473 0.0019751071225607092 0.002077183938766868 0.0023047599419247374 0.002755107041132551 0.0036747068307558415 6.719643216140467e-11 4.053135072760657e-05 6.732453886349142e-05 8.60422512901579e-05 0.0001000526648969302 0.00011140620369692605 0.00012138374252431242 0.00013083545192741906 0.00014038731985533342 0.00015058147361647048 0.00016198902324472082 0.00017533976452782882 0.00019173141108230583 0.00021306369087745045 0.00024316900662991363 0.0002920586808954792 0.00041108684338848987 0.0011691802950866358 0.007006619996790353 0.00023191131949324678 2.352262693879317e-06 0.009592962149063407 0.008151126726271609 0.0041814269009528325 0.0017812123886519603 0.0010527218012875577 0.004113637315866884 0.012445239628539143 0.01590449474661216 0.010709020881920198 0.005740433631104289 0.003565772559496746 0.002760280948797995 0.002369583955233146 0.0021751929929023366 0.002098538272432379 0.00211340170041858 0.002224222357430047 0.002467379062485176 0.002933465685732426 0.003841061206252799 6.003077475750802e-11 3.653608464634664e-05 6.214242790108922e-05 8.093955287513058e-05 9.554207672638681e-05 0.00010764277452709338 0.0001183694648374364 0.0001285132247835696 0.00013868259261598905 0.00014941597268786205 0.00016128376995455017 0.00017501322081592334 0.00019169503230551357 0.00021321731160269403 0.00024339065765939936 0.00029218003630972753 0.0004106592960332339 0.0011633659077120377 0.006974304734085113 0.00022994759366941323 4.195836455077006e-06 0.019924248476346423 0.019958521854137563 0.01937103884079505 0.016101588271847204 0.010194050920824541 0.006481387547060024 0.008857923614906438 0.013558936343407435 0.01261519980171069 0.008153185444190605 0.004789216804648351 0.0032592232144697947 0.002622508682304995 0.0023465559447754434 0.00224086597499688 0.0022449853722366175 0.0023568561404185813 0.00261034721648311 0.0030943854848361043 0.0040217447246414075 5.452958862912958e-11 3.337205884601153e-05 5.788923585124079e-05 7.663130680297047e-05 9.165621952292372e-05 0.00010436741383061292 0.00011574806034213879 0.0001265212492198996 0.00013726362993913784 0.00014849798731732497 0.00016078345432168263 0.00017483511301783855 0.00019172632389756418 0.00021331841858080413 0.00024337332379618346 0.00029173196389124605 0.0004086611385943318 0.0011491459900803442 0.006906390715885785 0.00022758513386982555 5.807810353824345e-06 0.015557528566642949 0.016300961123431414 0.017925790264038014 0.02057908972382875 0.021527025661025823 0.017514649196610728 0.013656024954933073 0.013526287487452165 0.013445584423580912 0.010588126399118936 0.006884493351387878 0.004371517133641743 0.0031288383563706466 0.0026038666038438523 0.00240788974042213 0.0023782542250434047 0.002479109931227279 0.0027360537489583736 0.0032391291827156003 0.004211908699088703 5.011859387493727e-11 3.078163019425e-05 5.430537206930318e-05 7.291380110099725e-05 8.824323014093562e-05 0.00010145859792186967 0.00011341159376208863 0.0001247532524079839 0.0001360196543823085 0.00014770767200519104 0.00016035547171723943 0.00017465564752181906 0.00019165240294796615 0.00021316176898809064 0.00024286190650206263 0.00029036761144912645 0.00040445544809814075 0.0011238624390767652 0.0067913533680715185 0.00022476573859645516 6.4791751414682314e-06 0.008232123496244912 0.008654388689798448 0.00953619907287765 0.01113704100575094 0.014030943006460591 0.016849903229396727 0.016934977842255096 0.015945817338106676 0.015036654355518875 0.012935572784910252 0.009534534986334406 0.006305672138724074 0.004182852736690858 0.003105384026372366 0.002659337485934089 0.0025337566804478997 0.002600399425878095 0.002851495147817291 0.003373034161198462 0.004406332039020907 4.643631497444668e-11 2.8586679374651425e-05 5.119041267561867e-05 6.961106526491902e-05 8.515453201668477e-05 9.87859038790004e-05 0.0001112369696662365 0.00012308555976233904 0.00013482086335592987 0.00014690563203203073 0.00015984756689765113 0.00017430590618234705 0.00019128182176228267 0.00021252412252382018 0.0002415838232205835 0.00028772553022549715 0.00039741605677660245 0.0010850401513615338 0.006616880942556858 0.00022142775461931238 6.674873028645647e-06 0.00484299297420749 0.005072317449915865 0.005458547444707537 0.006072822070554311 0.007075621435023435 0.009011720604496938 0.011927637963683166 0.014067455635239758 0.014989037536721381 0.014382114946342853 0.012052935965165724 0.008842064198759951 0.00598231743973759 0.0041040708613115815 0.0031403449345136967 0.002766589225084644 0.0027352923048915576 0.0029573627676676185 0.0034919959219752252 0.004599738126848873 4.3238067343873895e-11 2.6658748538006066e-05 4.838730612833687e-05 6.657017838248822e-05 8.224752793401973e-05 9.621334699722535e-05 0.00010908890736711509 0.00012137885188795222 0.00013352030194137396 0.00014593451334094374 0.00015908997575586297 0.0001736014177791892 0.00019041084637510814 0.00021117439050929713 0.00023926532787036623 0.00028345424982338804 0.0003869973948598914 0.0010307318151405933 0.00637027224300645 0.00021744579508802794 6.726573273873694e-06 0.0034912625574017252 0.0036714554385470343 0.003916977142807012 0.004246567556519444 0.004700282459941619 0.005367747037508789 0.006919710767689848 0.009413447126738372 0.011915524079443837 0.013399484521935914 0.013094266966374777 0.01106165891626762 0.008249014616122652 0.00573272827226248 0.004055370428981332 0.003200729743275747 0.0029307074119652925 0.0030635236287585212 0.003593196784902192 0.0047870702886615105 4.034922399893018e-11 2.490237876399841e-05 4.5768714058970745e-05 6.36564055396404e-05 7.938587378660114e-05 9.3601812787685e-05 0.00010682308526061181 0.0001194804874665224 0.00013195558807542007 0.00014462138600207115 0.00015789873280871222 0.000172346600578296 0.00018883021951077665 0.000208884012315107 0.0002356468061404406 0.00027723855633590965 0.0003728005657595404 0.0009598440710072923 0.006039305130677421 0.00021262421440363757 6.72842867017193e-06 0.00283193