# vtk DataFile Version 3.0
vtk output
ASCII
DATASET RECTILINEAR_GRID
DIMENSIONS 41 41 1
X_COORDINATES 41 double
0 1 2 3 4 5 6 7 8 9 10 11 12 13 14 15 16 17 18 19 20 21 22 23 24 25 26 27 28 29 30 31 32 33 34 35 36 37 38 39 40 
Y_COORDINATES 41 double
0 1 2 3 4 5 6 7 8 9 10 11 12 13 14 15 16 17 18 19 20 21 22 23 24 25 26 27 28 29 30 31 32 33 34 35 36 37 38 39 40 
Z_COORDINATES 1 double
0
POINT_DATA 1681
FIELD FieldData 1
Concentracao 1 1681 double
0.0 2.503389388053697e-54 3.2229766219039924e-48 3.419659762101982e-42 1.7979770676877495e-36 4.438823514383312e-31 3.6380446716663356e-26 1.6354714458106691e-22 7.977256147720523e-20 9.22375433478814e-18 3.934020968942762e-16 8.08426879211098e-15 1.052592524657175e-13 1.4249316289362502e-12 1.911604601860499e-11 1.782437636987299e-10 1.0133774215155321e-09 3.81838971557923e-09 8.164677349335644e-09 6.923908195718196e-09 6.802705514162724e-09 6.386360223820886e-09 4.680199974686818e-09 3.862549447193409e-09 3.3815114966565934e-09 3.2001764937927305e-09 3.2786292226734243e-09 3.6695515496471827e-09 4.456312239582995e-09 5.645971698645827e-09 7.022764994755205e-09 8.2256863177021e-09 9.277419072468333e-09 1.1079259417862133e-08 1.4716375636527012e-08 1.9630655886406875e-08 2.316278508637878e-08 2.315409761284699e-08 2.059295047674948e-08 1.831661177938654e-08 1.7613689259552744e-08 4.393168194551688e-54 3.129239238456509e-48 4.02872389658684e-42 4.2745781222872396e-36 2.2474731325867543e-30 5.5485338022345415e-25 4.5475594513734144e-20 2.0443408891679828e-16 9.971577696932504e-14 1.152970192207138e-11 4.917530132096673e-10 1.0105343742320921e-08 1.3157416978966207e-07 1.7811659571469548e-06 2.389507663930226e-05 0.00022280488286717607 0.0012667227902718368 0.00477299096074407 0.01020585477656356 0.008654892066703087 0.008503388695408919 0.00798295664486576 0.005850254648558497 0.0048281906040009105 0.0042268927523322385 0.004000223817417407 0.004098289806971003 0.004586943094897778 0.005570394755790984 0.007057470261443609 0.008778463266209001 0.01028211610369308 0.011596783118004488 0.013849085351587083 0.0183954842620344 0.024538339474702176 0.028953504499060825 0.028942645140835305 0.025741208676920247 0.022895783040844955 0.022017129179957982 7.018847383054313e-48 3.156601783011011e-42 1.0852843944661623e-40 4.879499195808351e-35 2.126963862944691e-29 4.403354577068837e-24 2.7653372917216083e-19 9.870306960552362e-16 4.278860369013291e-13 4.6641098553861456e-11 1.95022540980017e-09 4.0486231018461626e-08 5.928498908134176e-07 1.1661466752289912e-05 0.00016488919745304283 0.0012772472468441814 0.005898627623080786 0.01561735253276306 0.02723151606475123 0.00012427869903967496 3.644553637638378e-05 0.008246037606415915 0.007613758857215563 0.006896094361173722 0.006582594896588818 0.006634617185912859 0.0071742573353252475 0.008395746957403829 0.010510980581412008 0.013471972621741258 0.016681094408315923 0.0192941592941413 0.021446918352721268 0.025094072011378553 0.03219205801167462 0.04105794577020182 0.04621390005244076 0.0440792462806074 0.03757904989587492 0.03258009083056672 0.031157608548242965 7.287990615368202e-42 3.7650550159693546e-36 4.2579371971661204e-35 4.956468064740543e-33 7.280636343921819e-28 9.60167820534324e-23 2.6527976757157432e-18 5.963918394407721e-15 2.0794010046797937e-12 2.0437675057219849e-10 8.23809889349777e-09 1.7351171794688712e-07 2.6486985852530477e-06 5.873618829987081e-05 0.0007067743088784018 0.004349192833533175 0.01524120647496171 0.03227362221129182 0.03657013055024018 7.155019708214694e-05 3.937742334996443e-06 0.008854922846238946 0.008471048502605787 0.008291052575238952 0.008366547038493141 0.008886865851431058 0.010071094021432275 0.012238878227782508 0.01563024877744616 0.019999522403364587 0.024336318626272613 0.02752035596731878 0.02997585454370568 0.0343051616616213 0.042513088330912316 0.05184800488317643 0.05565731397653896 0.050616805638677 0.04128429165105767 0.034812219330522344 0.03309166764454509 3.708090706285232e-36 2.0542000403188602e-30 1.972907552528809e-29 7.260704800840277e-28 1.3511288531435724e-24 1.4293958427759148e-20 6.375460474495535e-17 6.215244988270611e-14 1.4725371076539346e-11 1.1905294857799626e-09 4.3615091624485155e-08 8.87998577892921e-07 1.1966890731985129e-05 0.00024495932823742194 0.0023120376124990713 0.010941794350988724 0.02954927964811916 0.04719919259074548 0.037201304741351124 5.8415332684835994e-05 3.897306509155664e-06 0.009960164130368708 0.009759269505949781 0.009857950013890721 0.010375236621085353 0.011495169074568955 0.013543438187088733 0.01688960889065504 0.021646965608680693 0.027185711324064447 0.032061467436532376 0.03512741847512635 0.037342749407290945 0.041782775462676884 0.05006661812017647 0.05844461751403155 0.05988904472260913 0.05195385273095408 0.040487271740491194 0.03312805501352357 0.031279301119681475 8.751990921227256e-31 5.04304016826784e-25 4.125870915260618e-24 9.642266638544107e-23 1.4648075938375108e-20 7.16787745707402e-18 3.980676393638632e-15 1.240850063613685e-12 1.6321467677916082e-10 9.557009260526823e-09 2.891548064115993e-07 5.209886118294578e-06 6.282234395766216e-05 0.0008928188403051351 0.0062632315455140135 0.02252426204796442 0.04655368682665136 0.05599770339772048 0.03253203875997874 3.988411465504949e-05 3.845437248344973e-06 0.011908830276404735 0.011873622942199654 0.012304420973706843 0.013352500051976142 0.015285826853239535 0.018463699230808726 0.02316101510682955 0.02913847187124793 0.03524881947098173 0.03978232878945833 0.04196792219138062 0.04350149937593974 0.047654578698700586 0.055308021850782596 0.06191407400464592 0.06069296547458132 0.05031081270410756 0.03743837423461816 0.029644949800569864 0.027774499243280015 6.582822551578077e-26 3.8895863310652204e-20 2.4165382501069613e-19 2.4230657526561875e-18 6.152840786533025e-17 3.9515388077637234e-15 4.1087707778945527e-13 4.0452716533086805e-11 2.6178979104911122e-09 9.87563288616867e-08 2.2278526279343477e-06 3.224711039116106e-05 0.0003211017436211703 0.00289316968341242 0.014668963804966254 0.039657576675079964 0.06244985278879743 0.05725392725469662 0.025052022348925274 2.4936402784412692e-05 3.7758547733938422e-06 0.015485354340424142 0.015665800833186562 0.016552246776764857 0.018350494846940197 0.021348682451899564 0.0258165264904982 0.03170261878021069 0.03823080418881445 0.04382914305068289 0.046952592443614494 0.047636543630641015 0.0482933836434079 0.05196420399953586 0.05855440005721825 0.06303385969875414 0.05931651341168975 0.04713501859677774 0.03350133445532869 0.025586135503885526 0.023749753372999807 2.598410767256159e-22 1.5621791683058418e-16 7.789285304159041e-16 4.988542024372616e-15 5.617836702169567e-14 1.1989657086577643e-12 4.039300842486395e-11 1.5456729780649401e-09 4.9825037435601344e-08 1.145439228960747e-06 1.7906452158178813e-05 0.00019251310668117619 0.001459413287401596 0.008405625166491579 0.030233455125397348 0.0607243752993617 0.07251518690790135 0.050703751606546534 0.016804828836117416 1.3706150643358089e-05 3.6698532981028463e-06 0.022053777376937575 0.022511162273539182 0.023989851411791184 0.026676934913749357 0.03074590320642593 0.03615606095670829 0.04235120774963899 0.048086213344534265 0.051791490633370414 0.052633152044606724 0.051638474377596 0.05156963873247699 0.05474564057303313 0.060059180823642914 0.06240095287739623 0.05664432408566215 0.0433592413480221 0.029474878427399227 0.021620779526937566 0.01983415318493528 1.142344655627756e-19 6.955017902315721e-14 3.133069797864903e-13 1.646183023500917e-12 1.2868855037593767e-11 1.5635299369645025e-10 2.649270181553738e-09 5.101381769475746e-08 9.055496643609481e-07 1.2808660828088222e-05 0.00013446544715155746 0.0010236404388049556 0.005607418820964072 0.021692223409570145 0.054496903222702966 0.08020016456317862 0.0719040911070575 0.03808262129961887 0.009526381047244748 6.415112103132251e-06 3.4924364016194102e-06 0.032987153506528685 0.03367477814808465 0.03562729414257228 0.03888387025138046 0.043320085226833865 0.04845891920447608 0.05333516418720858 0.056659669722210204 0.05744361116195236 0.05586045109712935 0.05364582386598467 0.05329415883952376 0.056059031287839504 0.060042765948355524 0.06048308704755281 0.05329866350589757 0.03956774583139795 0.025801442651768633 0.0180825327508755 0.016330037779471524 1.211501262042012e-17 7.451419881336327e-12 3.23534039642854e-11 1.5804410631120423e-10 1.0455390010481824e-09 9.393084126182381e-09 1.0403567937994295e-07 1.230173680112382e-06 1.34539546604107e-05 0.00012208356359384078 0.0008604256193707246 0.004542528996341282 0.017495330304080337 0.0474309042358939 0.08264700392848431 0.08804872227358279 0.05852714287111045 0.02320000326047658 0.00433404909779169 2.424182155844429e-06 3.1979157819334785e-06 0.047670515045283066 0.048285122906522704 0.05009313375862935 0.052894464755957514 0.056240327763842426 0.05938040638030608 0.06136157609816432 0.06138643721343208 0.059343844107453025 0.05617895687702712 0.05368675899314801 0.05355370842200315 0.05597097301178876 0.058685108364583405 0.05763062569526861 0.049694334670564264 0.03610322769255014 0.022703609245828822 0.015109840475522678 0.01335008714855476 4.79154891305735e-16 2.974174153756705e-10 1.306337998575117e-09 6.421119365431064e-09 4.000800053783954e-08 3.0275676350180355e-07 2.5185923729659367e-06 2.0620515547826004e-05 0.0001507971977871032 0.0009150883799338278 0.004380300805813259 0.0159494250722129 0.042684294710145926 0.08032282655080318 0.09896254388426451 0.07572539813697153 0.036781604208993894 0.01073836447099177 0.0014748310836335524 6.908032585242546e-07 2.7563301550659915e-06 0.06151274650801225 0.06157786009143455 0.06234792137552653 0.063475668519658 0.06442064779379371 0.06455188202298844 0.06335835928320334 0.06074032659974974 0.057225208166694526 0.05391524290941831 0.05207366574760816 0.0524346725951265 0.0544815310451715 0.056085491512640875 0.05406050090677506 0.046062179416062145 0.03313201747329702 0.020271776932878283 0.012735339330285452 0.010902622636336389 9.184147341804846e-15 5.754079869891755e-09 2.6738546937539982e-08 1.417098985817074e-07 8.909042246751725e-07 6.06038451190527e-06 4.028711718647972e-05 0.00024149804463265265 0.0012316035379790144 0.005123590583452083 0.016817534613924136 0.042214918498878366 0.07813654890089722 0.10162589696877797 0.0871423077319717 0.047274147742971576 0.01649034501695477 0.0034800063926588736 0.0003450236715869623 1.3754998552091564e-07 2.188199620149831e-06 0.0675225333982635 0.0668160808676485 0.06616213178288402 0.06529478324223782 0.06388692559549772 0.06170014741335015 0.058733104094141196 0.0553192806506083 0.05209405423710892 0.04980720747401505 0.04902621427924398 0.04981084633169252 0.051426798553099555 0.05220410702924426 0.0498218198141987 0.042451129976115665 0.030677984726279615 0.01851761998037951 0.01094220992647238 0.008943962341620794 1.9163031832466366e-13 1.2738579498767337e-07 9.740294454866775e-07 5.806948347248443e-06 2.8594701255887747e-05 0.00012273388021591028 0.0004789401867172173 0.0019982398092235356 0.007141881798646036 0.02047693835787338 0.046203725322143445 0.07991402591002669 0.10207250958959407 0.09151898684891788 0.0539745833602404 0.020124220166002856 0.00490417602068832 0.0007295606494883117 5.105006236768366e-05 1.7688980774636853e-08 1.570445066990426e-06 0.061829108262086686 0.06072621651077978 0.059259325863044394 0.057380456618311974 0.05506234993496088 0.052390890727509715 0.04960156497689423 0.04705303057654233 0.045138303421728795 0.044165878848446846 0.044247102854377204 0.04519718420844884 0.04642552420705508 0.04681709369415271 0.04475877471123938 0.03870879849241465 0.028625863161515806 0.01739358219377229 0.00969894663894356 0.007409273618821784 5.2548771268762515e-12 3.829056431420771e-06 3.175663545272245e-05 0.00015702663714140146 0.000587278280829816 0.0018263773885292712 0.0050070807965967995 0.012561082990795908 0.028251257661848213 0.05495232512038964 0.08516585838531728 0.10151464383971136 0.08943702224090734 0.05517719189847146 0.02227830534833377 0.005433917080840409 0.0008877903885127086 9.003614584430415e-05 4.322600434306766e-06 1.3382711957983912e-09 9.984268609039727e-07 0.04716405318507245 0.04634637841575942 0.045111321362746544 0.04356029820668216 0.041814901742558315 0.0400446712170495 0.03845267522246029 0.0372374821184858 0.03655133205883657 0.0364696833485341 0.03697427898602212 0.03792766513378786 0.03900553424053638 0.03956416760566884 0.038510088687595326 0.03445800659521295 0.026679793788872315 0.016787699745814316 0.008971238984506559 0.006229657798413503 8.800711593865558e-11 6.817431431636864e-05 0.0004464142266310576 0.0017046998087691353 0.00479170826898528 0.011114673536572701 0.022403775380501208 0.040223169603041925 0.06401211061146186 0.0875241548418896 0.09630556825171138 0.080106925329444 0.04880523835679572 0.02070204446915586 0.0056918125912284265 0.0009321431158979472 9.718023105895791e-05 6.474012997756652e-06 2.0703556580565318e-07 6.465025239412735e-11 5.422151495112099e-07 0.029882876840815264 0.029666310791062096 0.02915797009885126 0.028468918353499705 0.027707678641281767 0.026986976450483573 0.02641143299453703 0.02606593503897919 0.02601155193439976 0.026287907550321905 0.026915305302527115 0.027880952793216982 0.029087374394088757 0.03023798773331669 0.030648331354832106 0.02911433156241209 0.024325448739377944 0.016419119550516354 0.008732822856602462 0.005342013072912656 7.443786280326645e-10 0.0006048786971372768 0.0031461420294765993 0.008935905769080767 0.019172168350760455 0.033686833369575585 0.051124765005105974 0.06857660373002601 0.08058666615366536 0.08014807008988917 0.06333089362788173 0.0370713644378315 0.015178838169375444 0.004426943052605339 0.0008240633923063923 8.947737910588176e-05 5.599890357552805e-06 2.353757529320074e-07 4.870227062258751e-09 4.123620851167144e-12 2.3383270470301486e-07 0.015089874094057633 0.0152274354487046 0.01520121141411292 0.015069766675907665 0.014887107061996451 0.014705777310781692 0.014575920675327538 0.014545157180546362 0.014662516473541594 0.014982528132753687 0.015568289023057258 0.016486673627252868 0.01778579201914284 0.019424345351740802 0.021129733475595276 0.02208944000956951 0.020768110003518758 0.01586667423523698 0.008820658822323257 0.00468958058837512 3.655226288216476e-09 0.0031305062405969615 0.011205601774633948 0.025776620488298905 0.04156385146396595 0.054649573937316925 0.06283639672671819 0.0637705771739399 0.05616748253477869 0.041203630342844515 0.023550532388779653 0.00970775302513443 0.0026748892593639723 0.0004879407899136623 6.010192182333266e-05 4.275627930178446e-06 1.5517158901667003e-07 4.03268858848567e-09 5.369062680390516e-11 7.558871978332761e-13 6.970956607545786e-08 0.005345383132288357 0.005479624110534822 0.0055427561076027395 0.005553963034215233 0.005532908444945291 0.0055007408733769945 0.00548155693160757 0.005502340426735277 0.0055958577475772805 0.005803355032627782 0.006179093695997163 0.006796855138402802 0.007751962626764603 0.009161430518273525 0.01107161344763476 0.013415836249109072 0.015144259069919777 0.014081747757071194 0.009125094660184614 0.004229630016083492 9.718467509392072e-09 0.008452515353361788 0.025748992892617426 0.03787261684542894 0.04216762210639183 0.040796018788780704 0.03521957819029216 0.02694028077069682 0.01776157083332871 0.009604926289787572 0.003961843080867025 0.001145471205955078 0.00021212242785178015 2.4367117157434774e-05 1.6855004872036548e-06 7.9636221408971e-08 1.9131460378221764e-09 3.23523118662276e-11 2.970860172267624e-13 9.696377842673202e-14 1.0529889429158959e-08 0.0009652174033326456 0.001000008055854945 0.001018898120646347 0.0010251031063922742 0.0010229124534118516 0.0010175605845798553 0.001015361907258804 0.0010238609807420001 0.0010525582557090413 0.0011143562185327676 0.0012284375522087717 0.0014255091969524643 0.0017582249604292791 0.002312632223845478 0.0032634747610571896 0.004672543148406421 0.007634230221211419 0.009400157660814553 0.00849711462164586 0.0039052905603378612 1.0842261859893977e-08 0.007084540829473687 0.0001514728386956777 9.199253259720105e-05 8.069698870174572e-05 6.0067385156112224e-05 4.1513180418525416e-05 2.563362761489146e-05 1.3728518303869658e-05 6.060076474700641e-06 2.062682403140463e-06 5.019182598269209e-07 8.003441162981531e-08 8.13069179925506e-09 5.169341976717195e-10 2.7366538253723232e-11 2.3643393802568225e-12 4.2024090221600005e-13 4.5310357661268223e-14 1.0829650737734616e-16 4.701379276357072e-12 2.9145852947599234e-07 5.159081604907357e-07 5.884064356795486e-07 5.881546889894064e-07 5.777170166987358e-07 5.58784735134727e-07 5.387706317107576e-07 5.222491939317115e-07 5.142918221199935e-07 5.203512434579789e-07 5.473640241984904e-07 6.051717067285921e-07 7.092751279888372e-07 8.80232745280921e-07 1.1643286076289115e-06 1.4765139958607413e-06 2.5755874731738117e-06 0.008950961869586474 0.008076576759354692 0.0036488024712272604 1.1202204500256607e-08 0.006983804347598397 4.5039871780491716e-05 4.8761388888715455e-06 4.837452423366578e-06 4.7884490493008484e-06 4.726752607731424e-06 4.638429324095274e-06 4.490445757654395e-06 4.226974553577723e-06 3.788703958071933e-06 3.1581417199454846e-06 2.3947945120459883e-06 1.617714052982434e-06 9.4771109487075e-07 4.606346179367416e-07 1.7221956421476065e-07 4.333128652754065e-08 5.427420943297439e-09 2.1876272033409393e-12 3.203951149861049e-15 1.0871242304321356e-10 2.626019886292577e-10 2.8208174270325506e-10 2.809894246170636e-10 2.688387911056011e-10 2.5225483819433507e-10 2.349004257869483e-10 2.2318733031256548e-10 2.4383031243909957e-10 4.083757952569289e-10 1.0587654164354535e-09 2.9293403701590572e-09 7.08607302659697e-09 1.4439333647485339e-08 2.5054596916663534e-08 3.77616264992974e-08 1.217263257772725e-07 0.008428415794405439 0.007401802190533845 0.0034274938420390737 1.0977383597742349e-08 0.006526610016925705 0.006733142954872785 0.007180007551411128 0.00797532716232718 0.0093567384946618 0.0119434553042022 0.01711975156102044 0.027093585317332938 0.04329582541467319 0.06309731420192286 0.07865192968727094 0.08165465533045048 0.07022378889951887 0.04995864861648337 0.02886920624150184 0.01277198692225461 0.0037980615129580746 0.0005589793083241117 1.4960845220608404e-07 5.043938568371655e-11 1.2419186047433304e-13 1.1318529055372411e-13 2.13732513165765e-13 7.1716917148260164e-12 2.902091643045159e-10 7.130467841723062e-09 1.1122691893444198e-07 1.1539997205781984e-06 8.294100138837549e-06 4.284150401864239e-05 0.0001645211417322001 0.00048521155457441757 0.0011347186661653708 0.002173006108970148 0.0035190796267507555 0.004968162099485079 0.006286970803741711 0.007335938079317723 0.006446180536969807 0.003192998470344832 9.11870210204083e-09 0.00474042162023835 0.006184480184308574 0.0068382365529483236 0.007776710562886377 0.009283494550602974 0.012046357008068836 0.01750720746952496 0.02785544215900705 0.04429259955272711 0.0638370526661986 0.07860611714876466 0.08084336594315383 0.06929598191357839 0.04952816014360461 0.028948664778257298 0.012986866049920519 0.003909432010726482 0.0005800664123722912 2.646082829296834e-07 1.2161526488605798e-10 4.8655502205371316e-14 1.6246499291362142e-15 5.052986271511273e-14 4.134131256631146e-12 1.8672521252080277e-10 4.94607167456616e-09 8.174222946698884e-08 8.862916064096873e-07 6.586749578612724e-06 3.489620577077433e-05 0.00013659999529254383 0.00040858307388498517 0.0009646949419752419 0.0018564468627531889 0.003005460943833412 0.004207445053960656 0.005249294319762158 0.005688069659710855 0.0051258863963388485 0.0029269875750772808 7.348461260398037e-09 0.003904836528787553 0.005561368800149042 0.006638677246617137 0.007786775691410226 0.009541940346741083 0.012687048827217327 0.018780816456521913 0.029932151176063463 0.04685372573689573 0.06590558564076904 0.07919804117362259 0.07995103866776163 0.06792188941737762 0.0486363941095345 0.028697887517031204 0.013019730657079086 0.003952566834255166 0.000589017952988081 3.0011379145300205e-07 1.2982433176431387e-10 5.0944611861121377e-14 5.041546764444102e-17 7.944132610357087e-15 1.0070061816282513e-12 6.244617523295052e-11 2.0994055436541666e-09 4.1422018874178015e-08 5.121196443538274e-07 4.1954739683967895e-06 2.3900833845986106e-05 9.87839308340445e-05 0.0003077349957235421 0.0007486474405987126 0.0014714390808328488 0.0024118922829715447 0.0033984264178041957 0.0041858540363235676 0.0045249726921833796 0.004082521938261421 0.0026028348961254304 6.093968256339119e-09 0.0033911699345330944 0.005255096716234945 0.006618430999761523 0.008093720337232038 0.010257898914213262 0.014076985795971123 0.02122004680658858 0.03355979275760122 0.050991331856449974 0.06903833858120097 0.08007654882540415 0.07879390936030987 0.06614077404722953 0.047412150243078696 0.02821490765363014 0.012914006397044906 0.003940646474376336 0.000587788532208241 2.970752337980618e-07 1.280674775776279e-10 4.820274333988491e-14 5.700823138499833e-17 1.564249870033286e-16 6.111266293239767e-14 8.402025437326022e-12 4.800439596246215e-10 1.3576066673145062e-08 2.1563610716784882e-07 2.110634585989432e-06 1.367259842849453e-05 6.20829035504697e-05 0.00020731947809112585 0.0005309938510894977 0.0010833965178265687 0.0018235861474212637 0.002608765047773449 0.00324301491996616 0.0035136208823345998 0.003225331469702028 0.0022303304113788155 5.460411791346741e-09 0.0031690045951266723 0.00522056964677801 0.006923989525775108 0.008850353005143908 0.011691454675253767 0.01658645069950593 0.025227734172633846 0.03894551448908113 0.05650615625720281 0.07269929709716666 0.0807215386811525 0.07715120575830689 0.06400129269941349 0.04598178713762945 0.027586823155094246 0.012710419451714338 0.003887553610574948 0.0005790501199176385 2.877852927758943e-07 1.209012317482286e-10 4.4450236293558106e-14 4.34464266158721e-16 9.062068682961924e-18 1.8263705126838453e-15 4.162978453298853e-13 3.74419037557109e-11 2.344840610122525e-09 5.986242221486573e-08 7.966718315612065e-07 6.3604524552863695e-06 3.345000959535108e-05 0.00012414138394126285 0.0003433879381321415 0.0007412529249964801 0.0012993668498124417 0.0019130385577578533 0.0024235038728709773 0.0026665033284940954 0.002498966684355425 0.0018435043081741166 5.365446139263924e-09 0.003195192789100862 0.005557567067851019 0.007747500015358999 0.010383538369645232 0.014299024096975404 0.020751835271049894 0.03119457435319006 0.04602970867481297 0.06280153365011183 0.07608467712191087 0.08059524398130646 0.07491626657676698 0.061637159060961746 0.0444908221192988 0.026899049138209542 0.012449704155333249 0.0038094571467576356 0.000566078140468255 2.7342909774411107e-07 1.1153912357092558e-10 2.8033102020980486e-13 3.8216151524297705e-15 1.0254282601674705e-16 5.1431646212843934e-17 2.022987412735096e-14 2.9189618159549454e-12 2.6993228109391187e-10 9.593493189722076e-09 1.9978227598467435e-07 2.2661281595117345e-06 1.4985053888674975e-05 6.505778658960756e-05 0.00020105338457828616 0.00047004769785812125 0.0008730118653953665 0.0013398407821461485 0.0017490175536740175 0.0019688927514087723 0.0018920274692477339 0.0014729127788061375 5.859436893212652e-09 0.0035411617547142665 0.006473439011053642 0.009463126239009403 0.013224608734955384 0.018701291086826163 0.027061086752450465 0.03913311965721323 0.05415032920398142 0.06879964448435046 0.0782941813605126 0.07936288549451107 0.07220398378335127 0.05927263436293641 0.04308796406593008 0.026227361882148633 0.012172851610577276 0.003724214402537622 0.0005525852425640773 2.5791304361083536e-07 1.0156584938492796e-10 1.0897787564013935e-10 5.4188712415587174e-11 3.072702123802855e-12 1.5412418223359206e-13 9.636118451062759e-15 2.169037915373562e-13 3.059604653509618e-11 1.5301799102910077e-09 4.2587454796288827e-08 6.215724999334129e-07 5.238571965317309e-06 2.892323436819363e-05 0.00010498753959912184 0.000274526349259151 0.0005520654632234826 0.0008969173108235458 0.0012196828518566212 0.0014157641421136454 0.001399667509236176 0.001142403208724084 7.1739004989209826e-09 0.004372528748916723 0.008324635590687152 0.012590514346157279 0.017957892511121495 0.025316290754545372 0.03542021965574328 0.04819754091665568 0.06191329389877964 0.07321280585446965 0.07873026221790691 0.07712354061484632 0.06937412832366247 0.05717197526920188 0.041893635410534445 0.025632668607435377 0.011920667251558832 0.003651059972073273 0.0005426163978574349 2.435382890189015e-07 9.224078798738891e-11 5.429378273649017e-09 3.4815192524585482e-09 1.0783820181260484e-09 8.442409871119683e-11 7.741705238052665e-12 7.56865484114441e-13 3.3146848056245613e-12 2.34236360099956e-10 8.77218725967198e-09 1.6433589252985834e-07 1.71644413577006e-06 1.1424782586939782e-05 4.8684140650064475e-05 0.0001457013278561447 0.0003270346236854759 0.0005737211172789921 0.0008236386681850445 0.000994117234023922 0.001014881774214519 0.00086493204600484 9.594252111684481e-09 0.005877692557780537 0.011431798433124597 0.017449624575068084 0.02466772071824114 0.033685269540272324 0.04462746589387528 0.05664321477090453 0.06770029150895779 0.07524713522776892 0.07754737408488317 0.07448202628953524 0.06692200041144486 0.05555181653598938 0.040976024770563974 0.025160754402743592 0.01173457184951357 0.003611106610726107 0.0005406799631144759 2.3256520776315247e-07 8.486900152772823e-11 1.1246059679632052e-07 8.059871499895884e-08 3.7213659694440735e-08 9.3942601946871e-09 1.2384217513252892e-09 1.752462048076197e-10 2.5134265370259375e-11 3.6690883270966614e-11 1.7086129208360047e-09 4.128379746757293e-08 5.338865969401884e-07 4.269211118541678e-06 2.130862289307242e-05 7.293764927593129e-05 0.00018304865995755364 0.0003509629843112139 0.00053893521190031 0.0006833514934238492 0.000724280637063394 0.0006434710559058238 1.310727845707464e-08 0.008055493080250385 0.015672964627125203 0.02360592512954886 0.03239556143310005 0.0422389795167686 0.05275176847295655 0.06281724213053888 0.07082097370458694 0.07533547940084585 0.07577010389696172 0.07232347781873778 0.06526139301003486 0.05449350663827524 0.04033870933284751 0.024844513563303052 0.011657907550175584 0.003628269258887027 0.0005522057334337015 2.2709039911032736e-07 8.421302127328019e-11 1.2727815369180256e-06 9.716668035822434e-07 5.489483122180172e-07 2.1768682022069485e-07 5.0342678313680996e-08 9.708999553266811e-09 1.8907351501603144e-09 3.625041064345821e-10 3.728608686076002e-10 9.746801337547757e-09 1.5663217750649717e-07 1.5064701372901603e-06 8.816274357099295e-06 3.460708312508591e-05 9.763260505179758e-05 0.0002063340630350874 0.00034240815995555097 0.0004606847356765879 0.0005108083409166184 0.0004737942409992003 1.7254050636819278e-08 0.010625896004712818 0.020413034084888326 0.03000865070554968 0.03973398440052778 0.049512570459305634 0.058816124450661526 0.06675787657302112 0.07240234085357777 0.07513764728771222 0.0747891414924943 0.07132817066808113 0.06448810844434306 0.053888283036217566 0.03992034627964701 0.024705008731799694 0.011736663033473538 0.0037309250793876023 0.0005844739100963649 2.2943419975863703e-07 1.1618432568813114e-10 9.013550625240634e-06 7.156576404235151e-06 4.562091110308436e-06 2.291277819390911e-06 8.489850600580693e-07 2.1457721977110852e-07 5.4494918812150476e-08 1.3443669107580898e-08 3.2211408654096727e-09 2.836751858226187e-09 4.3226560524735884e-08 5.009914969480416e-07 3.4511579713203896e-06 1.560804792993504e-05 4.981941790334724e-05 0.00011709114669217526 0.0002122343732057688 0.0003062926744431517 0.0003583615050355007 0.0003478528145358117 2.194782874868654e-08 0.013535129271451169 0.025509240567100716 0.03650851062935251 0.04675676936908471 0.05613767599588927 0.06426151646595865 0.07061354207870149 0.07474460252586174 0.0763826426703711 0.07536406629567086 0.07144438230963424 0.06421900790760299 0.053415655772520186 0.039587239269300314 0.024741337666241234 0.01201593760512416 0.0039544999990684055 0.0006484509656380166 2.42631765968329e-07 2.8166469659901417e-10 4.355023972659638e-05 3.546262111350264e-05 2.4433224065891314e-05 1.4167321706574647e-05 6.729307474419585e-06 2.448847846040987e-06 7.789162621329518e-07 2.400520498356737e-07 7.065581198770247e-08 2.0123601340734472e-08 1.6194437629339706e-08 1.577507516893804e-07 1.2776263986839017e-06 6.69934702016393e-06 2.4379320680441408e-05 6.433722763847315e-05 0.00012881649690385147 0.00020177633810577927 0.0002516156708012943 0.00025653866627322453 2.8709734104201134e-08 0.017721393281294507 0.03247648560136862 0.045036389175476525 0.055752840686230626 0.0646697694965626 0.07164517774697249 0.07647764843824191 0.07900248397699115 0.07911271128068076 0.07670194969248342 0.07159215040038827 0.06355520463604741 0.0525369139921635 0.0391055624773695 0.024903011339789508 0.012530113032194468 0.004344964860412036 0.0007619964087887585 2.712229193753153e-07 8.449003298658101e-10 0.00015289442056019224 0.0001265220486966355 9.181230890380562e-05 5.845553122282849e-05 3.231289450102888e-05 1.5079555984206813e-05 5.849135322229147e-06 2.1816814665547224e-06 7.746409827252104e-07 2.608916012114889e-07 8.551703713945102e-08 7.040094067580525e-08 4.524600606977041e-07 2.7344867671779716e-06 1.144089680794603e-05 3.4261006879652524e-05 7.670914551203386e-05 0.00013214182990952005 0.00017772051146040856 0.00019140846848813724 3.9739075284120874e-08 0.02454331489484297 0.043149710175004206 0.05735808636227819 0.06805983957950093 0.07574457613550473 0.08068204533717248 0.08305230012984814 0.08301705482034803 0.08073181636157344 0.07631465008344421 0.06980935061798126 0.061193844957130754 0.050498748065349465 0.03808743802255694 0.0250354208276467 0.013277532283898125 0.0049579104062785805 0.0009561255904455333 3.226743447387589e-07 2.270291380484441e-09 0.00041011417185869123 0.000342581053060706 0.00025739189088065477 0.00017454785995181182 0.00010655272469533119 5.7903385092430374e-05 2.7279356023113694e-05 1.1975178475894494e-05 4.99501442703156e-06 1.977316678265849e-06 7.423145295017786e-07 2.75050388081