# vtk DataFile Version 3.0
vtk output
ASCII
DATASET RECTILINEAR_GRID
DIMENSIONS 41 41 1
X_COORDINATES 41 double
0 1 2 3 4 5 6 7 8 9 10 11 12 13 14 15 16 17 18 19 20 21 22 23 24 25 26 27 28 29 30 31 32 33 34 35 36 37 38 39 40 
Y_COORDINATES 41 double
0 1 2 3 4 5 6 7 8 9 10 11 12 13 14 15 16 17 18 19 20 21 22 23 24 25 26 27 28 29 30 31 32 33 34 35 36 37 38 39 40 
Z_COORDINATES 1 double
0
POINT_DATA 1681
FIELD FieldData 1
Concentracao 1 1681 double
0.0 1.406845071139895e-91 4.689392526777527e-87 8.503768693795311e-81 1.0068092182945845e-74 8.689313390560991e-69 5.795614139844393e-63 3.123040534104907e-57 1.406507199935144e-51 5.4486591583947466e-46 1.864015045934954e-40 5.780200418596534e-35 1.6667795895417624e-29 4.0243062023112906e-24 5.01970523526144e-19 2.7585881830459435e-15 4.790259728577874e-13 1.9145493506070035e-11 2.8315420570086084e-10 2.591306006824809e-10 2.491920204555609e-10 2.2805635353569265e-10 1.6115230242836068e-10 1.2666054860979963e-10 1.0266329725745338e-10 8.674562147661711e-11 7.541163397298047e-11 6.707699895281923e-11 6.07138825041013e-11 5.568820792905476e-11 5.1576244125931264e-11 4.808512908070491e-11 4.500505717621472e-11 4.218379341899427e-11 3.951512148630018e-11 3.6946049805581505e-11 3.456694060592343e-11 3.3518944715637106e-11 4.5269624266259376e-11 1.5432475621781886e-10 5.240624221594072e-10 3.489051959724061e-91 1.75855774576994e-85 5.861745196880654e-81 1.0629719371012832e-74 1.2585125296774489e-68 1.086165036963294e-62 7.24452342859522e-57 3.9038036883823334e-51 1.758135324444345e-45 6.810829266594802e-40 2.330020665225403e-34 7.225256066006296e-29 2.0834761370525394e-23 5.030386766025601e-18 6.274636563782035e-13 3.4482379873956123e-09 5.987829450982072e-07 2.393188601745291e-05 0.00035394303768676615 0.0003239135061718097 0.00031149027476147154 0.00028507066921639915 0.00020144053918775328 0.0001583258102080197 0.00012832922423511398 0.00010843211359139286 9.426461787785956e-05 8.384631555392159e-05 7.589241384400912e-05 6.961031552224332e-05 6.447035673365821e-05 6.010645932423484e-05 5.625636647532557e-05 5.272978395753626e-05 4.939394137299671e-05 4.6182599176748804e-05 4.3208710291964314e-05 4.189871437104459e-05 5.658707557614118e-05 0.0001929060995970298 0.0006550785515185324 1.0078505202853443e-84 5.1563294595626877e-79 7.300999421299173e-78 1.2935935345993528e-73 1.4441182336844804e-67 1.2360231749024381e-61 8.38685975606935e-56 4.643638471430239e-50 2.1516062975557933e-44 8.529897786626385e-39 2.953047982309206e-33 9.10419613560325e-28 2.5459977333791035e-22 5.913372572659084e-17 6.939782883899145e-12 2.771796186109689e-08 3.7557713869612992e-06 0.00010443656189642705 0.0014904233633764 0.00017533082867074703 4.0103113420992344e-05 0.00028664237495870806 0.0002549231367146029 0.00021716025809859581 0.00018992786755299242 0.00016865014951983784 0.00015235469268406606 0.00013959790223616987 0.00012943240555763496 0.00012113304949202179 0.00011415948074264063 0.00010809646387734598 0.00010261837746961675 9.747001324324075e-05 9.246426885453491e-05 8.751285186313765e-05 8.28640301531109e-05 8.136714886474853e-05 0.00011146733111852387 0.0003823838510245921 0.0012971621088274418 1.7197517819700227e-78 9.387326692940653e-73 1.0777035044191016e-71 1.2149647354704601e-70 1.4217485087931509e-66 1.1115876891987396e-60 7.161201468644248e-55 3.842118064305141e-49 1.740934548592473e-43 6.756538109757121e-38 2.276120418346878e-32 6.739018727171854e-27 1.771823480012494e-21 3.9040223782071296e-16 4.2379333331269605e-11 1.2827177503883538e-07 1.2836096037211224e-05 0.00030607238479243273 0.0027177712692194023 0.00014316172643399046 5.135961149601224e-06 0.0002899161954389782 0.0002673360030528481 0.00024443700082959243 0.00022304161876561356 0.00020538068037761602 0.00019083203986481172 0.00017894243095705674 0.00016914458353179426 0.00016094659521799292 0.00015391636115291655 0.00014768082611686128 0.0001419186139974897 0.00013635587548695713 0.00013077948345094462 0.00012509617530157414 0.00011969300865297986 0.00011881654438107259 0.00016465250403582994 0.0005674356188284338 0.001925381599237588 1.940679240052031e-72 1.1044996693533004e-66 1.1930518200897944e-65 1.1264603664327401e-64 1.1149554897771067e-63 9.706972112796001e-60 5.669226579032464e-54 2.82718578639612e-48 1.2059247309458012e-42 4.423682996918138e-37 1.4040541149305488e-31 3.8747390862238426e-26 9.317294162730218e-21 1.926242083532302e-15 1.9281229988365057e-10 4.4119131800111804e-07 3.402833406314241e-05 0.0006208932312121881 0.0038266113601437505 0.00016659733282618853 5.270231186232821e-06 0.0002948920232310553 0.0002776430699851185 0.0002604906110374454 0.0002446940417024789 0.00023073541278447352 0.0002188593570232023 0.0002088643540059891 0.00020046886145536137 0.00019334242599380606 0.0001871526978895713 0.00018157548859823515 0.00017630410063331034 0.0001710570094764687 0.00016560342712856337 0.00015984705591444467 0.00015430960957260625 0.0001545748178284111 0.00021599075368324637 0.0007465368183478208 0.002538460976827588 1.6107586000404055e-66 9.425027353251592e-61 1.005406380792404e-59 8.635319679953792e-59 7.311196171702433e-58 6.576773732964706e-57 4.729791208342156e-53 2.131172664269966e-47 8.331201290921284e-42 2.815190056290702e-36 8.211226521829377e-31 2.0619015115923911e-25 4.428254048007246e-20 7.999002560600308e-15 7.357543150125075e-10 1.2880171951589587e-06 7.624067142173363e-05 0.0010585248673766097 0.00492022444998586 0.00016972559752095062 5.308460749754531e-06 0.0003016326791419374 0.00028762985468463857 0.0002741840077201724 0.000261859615277785 0.0002509743382589313 0.00024159461301546633 0.00023365158903040367 0.0002269597232109068 0.00022127660247038455 0.0002163260030779747 0.00021181273924501023 0.00020743675158145072 0.0002029054341794234 0.00019796931736771188 0.0001925276837552035 0.00018722479895973013 0.0001888825205942701 0.0002651214630953416 0.0009173956295857556 0.0031347039223805113 1.0397922222070395e-60 6.201101311923465e-55 6.690467686436019e-54 5.422618935967492e-53 4.136155057452608e-52 3.20941185385829e-51 2.6906973185167757e-50 1.7014640093879734e-46 5.929599082819094e-41 1.7967486545418617e-35 4.689166581667754e-30 1.0440037353485261e-24 1.9538625004531018e-19 2.99313824900589e-14 2.5360792068796148e-09 3.4139000006690184e-06 0.0001553179216606982 0.0016732774869329405 0.00601336990255702 0.00016888835794244604 5.274260291140931e-06 0.00031037293434591347 0.000298641530213744 0.0002876863941992538 0.0002778722145968667 0.0002693314873262874 0.0002620800684756259 0.00025603261092093304 0.0002510317897954575 0.0002468629055388985 0.0002432698189484541 0.0002399644864138835 0.0002366402119312115 0.0002329879035447939 0.00022873670084124571 0.00022377792958965607 0.00021886168266274216 0.00022189467659173879 0.00031146903540000463 0.0010769008757132654 0.0037118233969757834 5.449519442498126e-55 3.2955414698221873e-49 3.6253089451389334e-48 2.8251548787157407e-47 1.9854658170684255e-46 1.3762411734569764e-45 9.920994426682793e-45 8.981734948385905e-44 5.596640406022438e-40 1.273660187849099e-34 2.775156082243106e-29 5.270888949372839e-24 8.352410597670249e-19 1.0580754657696116e-13 8.301700538366694e-09 8.609665568227217e-06 0.00030148583615295275 0.0025318893286336635 0.007101337670495272 0.00016214123162505174 5.185576048428615e-06 0.0003214595080132866 0.0003114280247231663 0.00030233080076969455 0.00029441274032984243 0.00028773574726032963 0.00028226249901607263 0.0002778865357704202 0.00027444220727751195 0.0002717124704181147 0.0002694360862329869 0.00026731522310791627 0.0002650256301581482 0.00026223611949855645 0.0002586519676389737 0.00025415585445435286 0.0002495797845905019 0.00025369609303379554 0.00035425653358968747 0.0012210643174728546 0.004266962448184437 2.3991204612497994e-49 1.466936069563829e-43 1.6433396038622952e-42 1.2395402703789357e-41 8.110508269878221e-41 5.075779133680133e-40 3.2237023625474434e-39 2.440032298696164e-38 2.7107899196952006e-36 5.152677552639884e-32 1.4158226765465334e-27 5.2245108555801384e-23 3.9283637223527836e-18 3.6829470861769634e-13 2.684990270888344e-08 2.1352667566807112e-05 0.0005713716767707879 0.0037238037123107086 0.008136518867693667 0.0001503927279925999 5.055962578964013e-06 0.00033543512542993513 0.0003267630186784849 0.00031913223599274235 0.0003127369687853206 0.0003075903114975819 0.0003036224195011924 0.00030070020131233577 0.0002986374656037138 0.00029719797128976343 0.0002960994780221461 0.0002950210468053198 0.00029361255402978793 0.000291516958904893 0.00028841734993834096 0.00028418682802201355 0.0002797112332336512 0.0002843338387723099 0.00039257667634052813 0.001345118647195926 0.004796667880002188 9.140722409268869e-44 5.644445981241972e-38 6.383227723941781e-37 4.64985910731519e-36 2.8345604627338696e-35 1.6039596000651564e-34 8.976805508720611e-34 5.846418920519927e-33 1.609445922487125e-31 6.708460211947684e-28 5.201429747065397e-24 3.630276532590228e-20 2.1721767197790745e-16 2.387689368258402e-12 8.908195209488304e-08 5.3350845153044936e-05 0.0010725265394463017 0.005353087141438231 0.009023024697750813 0.00013369380276421572 4.8972180413898495e-06 0.00035314007623474237 0.0003456191953419225 0.00033921232758037833 0.0003340957141913752 0.0003302502602844595 0.0003275764390424592 0.00032591252666807203 0.00032504239364326045 0.00032469805856757104 0.00032456379084122426 0.000324284565246133 0.00032347834152473854 0.00032176029096804104 0.000318793993363844 0.00031444608491835405 0.0003096231508246099 0.00031387900285923356 0.0004255263575203031 0.0014437563089656352 0.005296925855362496 3.096884880821634e-38 1.9338401099421955e-32 2.1735003789193995e-31 1.5127971762063336e-30 8.522485669066916e-30 4.328076567455025e-29 2.1170214606461403e-28 1.1783181645502263e-27 1.3098183550981664e-26 1.0380528792349202e-23 2.343199677652658e-20 4.7711909173662345e-17 7.67724447800227e-14 9.570339574866244e-11 3.199047372864432e-07 0.00013709448257519894 0.0020092368294453533 0.007508468257371563 0.009592497501036858 0.00011233196773840885 4.722334507341638e-06 0.00037592383673337883 0.00036943416336876554 0.0003640996945625707 0.00036010180903406125 0.0003573949394737676 0.00035584785281208496 0.0003552627856451815 0.00035538260310186945 0.00035589509192135405 0.0003564373043171307 0.0003566085781180617 0.00035598674085685864 0.00035415861526837193 0.0003507737048329007 0.00034569970700294576 0.0003398329453523118 0.0003425353040122751 0.0004524179924137348 0.0015115462064991413 0.0057632938144929 9.528904854852041e-33 6.077964793720161e-27 6.632314175694309e-26 4.325874379383717e-25 2.213062116803033e-24 9.918170775367205e-24 4.1657219884429827e-23 1.9436725126774512e-22 1.2345195332229965e-21 1.463584082456108e-19 9.257979540253605e-17 5.1972585009292965e-14 2.3034180010843048e-11 7.413485939405232e-09 1.5248508711444155e-06 0.0003701503278224037 0.0037609285366421133 0.010169030823472485 0.009589611210490328 8.707205042222234e-05 4.546612693298719e-06 0.0004060757212823726 0.00040056278906899323 0.0003962148049245446 0.00039323444257384266 0.0003915501443915499 0.00039099049050325685 0.00039131066175647326 0.0003921957668940685 0.0003932708740347 0.0003941077600104252 0.0003942433918438513 0.00039320476830954774 0.0003905464588871178 0.00038591219808494935 0.0003791836670648198 0.000371229250932948 0.0003708221837346568 0.0004730568474932055 0.0015435781560733917 0.006191044739620401 2.6205093237386663e-27 1.8076513738567327e-21 1.853609210855354e-20 1.0992697405198067e-19 4.962311079305348e-19 1.908616043705886e-18 6.690411697620401e-18 2.529288605505646e-17 1.0911613277779287e-16 1.8015031011862536e-15 2.8129283033169757e-13 4.2001136424447853e-11 5.051982513063419e-09 4.562439682982375e-07 2.64495948958163e-05 0.0010809168119401582 0.006972739989695218 0.01297041340100632 0.008695941762723997 5.9702653185958106e-05 4.387899106317601e-06 0.0004478189747408723 0.0004432887072781114 0.00043989967440072905 0.00043788807494517495 0.00043715041350404717 0.00043746266715957363 0.0004385101154433398 0.00043989635525034645 0.0004411542802279621 0.0004417610266282365 0.00044116352711292726 0.00043881707172060464 0.00043423517012781813 0.00042706060016510516 0.0004172140478219631 0.0004055459824648569 0.00039993209379850936 0.00048815206006614775 0.0015361272336169452 0.006575413943753269 4.720047094566016e-22 3.549473924782184e-16 3.3770395365354793e-15 1.8280885632148143e-14 7.481786487794961e-14 2.59621442344382e-13 8.186011839995427e-13 2.4619115742354756e-12 7.382424677791233e-12 2.4271881700844604e-11 5.852130982769757e-10 2.1762073708478593e-08 7.233702926673807e-07 1.926048664587392e-05 0.0003552301986723844 0.0035287091621639195 0.012396733351314812 0.014749221563885811 0.006674868966758852 3.35593451713156e-05 4.2637841764576315e-06 0.0005101126117076636 0.0005066485211343803 0.0005042686527075813 0.0005032533041233473 0.0005034526359551656 0.0005045622249206407 0.0005061585122910267 0.0005077157800769172 0.0005086207860474677 0.000508200377815697 0.0005057593704673069 0.0005006393635239147 0.0004922868395645454 0.00048034748991699526 0.0004648162957478685 0.0004466130693106037 0.0004325584414966801 0.0004998101215710261 0.0014886961479916542 0.006912022098477757 3.9417527686174215e-17 3.232967290153068e-11 2.651781126902994e-10 1.2501224334654774e-09 4.3685669510714125e-09 1.2949336590454882e-08 3.485361659690122e-08 8.943456906653872e-08 2.2688404038246012e-07 5.874828496786814e-07 1.6246209779834839e-06 5.814221933615307e-06 5.419920205123572e-05 0.00046600801716033816 0.003013628561994665 0.011631456202671236 0.018855202605681205 0.013137013681081024 0.0037584764083669633 1.3320810624512305e-05 4.184200853309576e-06 0.000618974143249638 0.0006168592381752352 0.0006157732498441392 0.0006160429717343616 0.0006174297792662663 0.0006194655216099105 0.0006215094465703816 0.000622773384621539 0.0006223490816510666 0.0006192614285102177 0.0006125412568316769 0.000601323177924678 0.000584962877762764 0.0005631454423891511 0.0005360644018777183 0.0005048917167727465 0.00047591304174360706 0.0005134426897631679 0.001401325296416168 0.007197015823322564 6.733519447557747e-14 5.854817644549545e-08 3.77792249805963e-07 1.3224841088949223e-06 3.5987801425730452e-06 8.292438816794472e-06 1.745766922739537e-05 3.5292126914915873e-05 7.045572478875686e-05 0.0001416811319177509 0.0002918467887138328 0.0006272781566340604 0.0014517796236873995 0.004854749251441489 0.012665918774879473 0.020904383220019952 0.017051730484457028 0.006763646587368875 0.0011668059154342977 2.9773360510564093e-06 4.138515084817103e-06 0.0009196861774545815 0.0009202969593272763 0.0009221181770363078 0.0009255101469395197 0.0009298438700084477 0.0009340552373406394 0.000936703697245145 0.0009360489823588457 0.0009301338040700476 0.0009169626994864316 0.0008947219029849661 0.0008620607663896484 0.0008183490049537786 0.0007639834808477094 0.0007001832599713131 0.0006298360529312347 0.0005597779588142503 0.0005457714958048183 0.0012946509454992842 0.007428751332409803 8.336409805145733e-12 7.837125360082181e-06 3.511856097212387e-05 0.00010636435982681517 0.00022191328671070866 0.0003906849019692984 0.0006426260721699648 0.0010225174760752596 0.0016042875925904258 0.00251004005486617 0.003944336989256369 0.006250146536092951 0.009993968233576107 0.016111323999714124 0.020189308423897358 0.015954078794705756 0.0063994241584713375 0.0014381289533096486 0.00014910792015950948 2.7879004628641946e-07 4.0538683616666405e-06 0.0025603395363266827 0.002571423636965634 0.0025841296000149627 0.002599042511615727 0.0026135479358402785 0.002623646560793331 0.0026239611610882774 0.0026081989491547977 0.0025693154206127486 0.0025001758158797022 0.00239439139446063 0.002247197629184304 0.0020569911692105546 0.001825005599452972 0.0015606234232756568 0.0012653454844166198 0.0009690081166641568 0.00071276725082531 0.0011841668055100716 0.007605790896431638 2.4927877982446244e-10 0.0002571437926487055 0.001125660675808595 0.002094958537387091 0.003027298422258044 0.004019633877827943 0.005111396367566074 0.006342245662170011 0.007735330189797958 0.009293615977941575 0.010966020140217698 0.012580367755365243 0.013700192830286992 0.013339173579165305 0.009186852961543156 0.0038713075320422454 0.0008484363799189071 0.00011453115356622144 7.704751869316159e-06 1.7906854523152135e-08 3.4409519482185954e-06 0.01004180252021678 0.010081174507772992 0.010114904762238816 0.010148181386563263 0.01017610256774449 0.010189878496032473 0.01017772988250117 0.010125221118011837 0.010015474700579844 0.009829418730614806 0.00954609158647644 0.00914347301141497 0.008597833289092178 0.007891741301070137 0.006979579754402621 0.005955550211079897 0.004289370868251434 0.0030137144449035058 0.0016103473431887839 0.007738646851061926 3.3182305473424627e-10 0.000247289023643365 0.00019724635261824086 0.00015979520712383995 0.00018804265222181041 0.0001956449413208848 0.00020041354207025406 0.00019986830060241583 0.0001947452964725344 0.00018457826294895473 0.00016866008726706833 0.00014592906607175074 0.00011533770307199355 7.67589405806354e-05 3.5722859082541515e-05 1.1207874913304211e-05 1.9319896548895615e-06 2.0626633557748157e-07 1.7909283538366928e-08 5.122564140557737e-11 1.6596293327018797e-08 9.493474583300458e-05 0.00016024854037934215 0.00017892701723323256 0.00017894756276256812 0.00017865096239490184 0.00017727131337982643 0.00017563920842799004 0.00017368656103477085 0.00017144964703655227 0.0001689016918332266 0.0001659984883427519 0.00016262511462455646 0.00015859876204586814 0.00015340272863590952 0.0001474773123214453 0.00013463202080768216 0.00014899494782524806 0.0030398610467856414 0.001965434049608596 0.00784944664827578 3.5906915826576793e-10 0.0002381267640752061 4.8172777134188834e-05 6.150808678900254e-06 6.333804487565523e-06 6.418767771712609e-06 6.425975417448753e-06 6.371219129564109e-06 6.264731392809703e-06 6.113907330489052e-06 5.925987452178821e-06 5.710094013531567e-06 5.480750095785001e-06 5.26199379323437e-06 5.096724290989394e-06 5.016570295875633e-06 4.969434350682852e-06 4.820352363584871e-06 3.8442108919794075e-06 1.6952189501713648e-08 1.222398284410539e-10 3.8135815978009084e-07 8.719153591771968e-07 9.262735865813099e-07 1.0048630315784934e-06 1.3262538122253568e-06 2.1115861416687874e-06 3.1770920866278097e-06 4.045432725810984e-06 4.524893105371821e-06 4.740373336528472e-06 4.834762857372531e-06 4.8762723412723945e-06 4.8903593116924995e-06 4.885471853022694e-06 4.863425044491816e-06 4.810310587211108e-06 8.926646318339763e-06 0.0030715184947142644 0.0022249558164665556 0.007949869712689118 3.546390854891051e-10 0.00021791420682256451 0.00021932821854462914 0.0002220014251537116 0.00022606483016935605 0.00023156854360574137 0.00023869784077172203 0.0002477222473969587 0.0002590548991156656 0.000273320551420702 0.00029149261804412865 0.0003151592636518613 0.0003470931742203492 0.000392661464417864 0.0004645615546392272 0.0006116107582096945 0.001168413700963192 0.004282501198287741 0.014476263428151583 0.00010607342784561 3.895461373122837e-07 4.991831879601723e-09 1.2309870925130739e-05 0.0002684871947596506 0.0021815175984286474 0.008540185669190114 0.017781498839193437 0.021536238849346162 0.017354060548021508 0.011451852070946124 0.0076847855572008145 0.005743083102679334 0.004693942450359315 0.004065451680812444 0.003660579094163848 0.003388890116444091 0.0032041418785176906 0.0030802925474893734 0.0030065509969936944 0.0028943788179723955 0.008062429025694215 2.906090666830401e-10 0.00015389413264879306 0.0001950623531197613 0.0002047708449080057 0.00021290809675481172 0.00022087966472707706 0.0002297257686387312 0.000240025100148487 0.00025236734942696005 0.0002674780238897688 0.0002863976729574455 0.00031076371839964753 0.00034339350111167375 0.0003897069089508264 0.0004625048924672118 0.0006110278447878236 0.0011724809904584868 0.0043057625962829305 0.014537106973114214 0.0001791864640127207 8.911478665502262e-07 3.1494376910597773e-09 8.318745907897755e-06 0.00020375628329907206 0.0018435660879103787 0.007841972069369053 0.01732073307192164 0.021785722632692784 0.017905318925606123 0.011890291142006865 0.00798661466681264 0.0059846912127347095 0.004920974811084596 0.004300928504758345 0.003920398668096821 0.003688714537413503 0.0035672221629873446 0.003536199217210077 0.003693231543192694 0.004356854236588599 0.008199349037407305 2.265911472509501e-10 0.00012110966902351653 0.0001662731936858943 0.00018734145261078026 0.00019987252304987723 0.0002106726378259389 0.0002214121586482503 0.0002331172931028289 0.0002465630253152052 0.000262589398646262 0.00028230714823760706 0.0003074048283922409 0.00034074299191927566 0.00038779414619075076 0.00046147250986122517 0.0006115576660042251 0.0011782807431435338 0.004330583113992335 0.014586011903564297 0.00020027876537002706 9.403142202601695e-07 3.0306588891154848e-09 2.379943244711072e-06 8.79902008999391e-05 0.0011176925958900196 0.00609031291714988 0.01586649268230671 0.022030490078080483 0.01898271815655204 0.012731761348405235 0.00849520752825857 0.0063342672080186875 0.0052130426948169 0.004580662698245919 0.004212650197435398 0.00401437107553426 0.003947694824804306 0.00402406014788779 0.004354654774097224 0.005290470253152909 0.008382972091264486 1.7671881263866747e-10 9.826936908406045e-05 0.0001455624761119598 0.0001710999432923996 0.00018792123138203296 0.0002013791302122494 0.00021403754668029197 0.0002271898486612962 0.00024179668719381166 0.0002587987383931815 0.00027937311593192034 0.00030525518810858236 0.00033934620019878493 0.0003871702311079739 0.0004617715503822592 0.0006135779215603585 0.0011863436951442844 0.00435862926771203 0.01463340313969935 0.00020059752821409324 9.48560909632391e-07 2.920845524440596e-09 1.8036485058393673e-07 1.2079631321903325e-05 0.00035993364047036896 0.0034766881989817425 0.0128591850386782 0.02178252782196026 0.020607536278752787 0.014109010677476665 0.009279201033757936 0.006817610837210255 0.005578657509816641 0.004905174263959276 0.004533572386893311 0.004356512464176477 0.004337573035101869 0.004497051791190591 0.004945058038740428 0.005991456981863565 0.008622938523481123 1.4365012118477661e-10 8.315179350932435e-05 0.0001294266392493599 0.00015775553944115877 0.00017742698893903592 0.0001932494853332619 0.00020771212401664765 0.00022230069964809245 0.0002380914512189097 0.0002561076241031681 0.00027758006213691734 0.00030428313786447865 0.0003391528960629673 0.0003877604360652155 0.00046328035762112395 0.0006168399066537117 0.0011957042452903702 0.004386393900180549 0.014675171286618377 0.0002006426089880058 9.405926676195521e-07 7.4467096073349245e-09 1.0330528519709117e-08 1.2781477962323818e-06 7.339729550413493e-05 0.0012530309212506296 0.007713401039016685 0.0198004799616792 0.022578215436602763 0.016240276883076613 0.010470611668704232 0.007484286040188221 0.006034989544959403 0.005278899602620485 0.0048807169623391825 0.004709502800066928 0.004722407035371032 0.0049390469988049215 0.005461095650913008 0.00654979189250056 0.008915857990014034 1.219214756671242e-10 7.242962135417531e-05 0.00011714005105877481 0.00014684701047638883 0.00016859395030350104 0.00018635178510500295 0.00020246671861524717 0.00021844179414459084 0.00023541638244444735 0.0002544647923182762 0.00027685633085866 0.0003043925034430761 0.0003400325916233178 0.0003893827853279719 0.0004657301353297711 0.0006208342086682807 0.0012047681842811595 0.004407697694417912 0.014702176452593358 0.00019956516154058098 9.338737339947122e-07 0.00013982185275581053 1.4897838937003105e-05 2.2922152637904086e-06 1.1746721368861271e-05 0.000362616033184417 0.0036263369147276443 0.014391843129883482 0.023352324033427733 0.019409593290272007 0.012331347110192363 0.008434683539816775 0.006617398208182426 0.005713561308941133 0.005255784531998884 0.005069013623035123 0.005095007779056143 0.005346703119373474 0.0059155712262153205 0.007030404394696034 0.009256549718185575 1.070979731250401e-10 6.460333263794539e-05 0.00010761468035234506 0.00013804689174581335 0.0001612901139759643 0.00018065839806789637 0.00019826330593941669 0.0002155617749822529 0.00023370266194213066 0.0002537831466889711 0.00027709104887763727 0.0003054399710427124 0.000341796739118159 0.00039177738003293844 0.0004687366677456822 0.0006248586142153298 0.0012113521167995726 0.0044144002732030225 0.014701711423706224 0.00019830571225607407 1.1615919197727435e-06 0.005400946027596846 0.004228663936126345 0.0015726925595407064 0.0005143506968482147 0.00023023157758303656 0.0013866573497253653 0.008193578279760772 0.019125089543477435 0.02143612519310408 0.015294242880391835 0.009882530454123307 0.007398510862971561 0.00623491608038989 0.005666570937191993 0.005434863217103189 0.005452166575782966 0.005719163742620529 0.0063180289129212575 0.007458276320622821 0.009636341059565018 9.644269496302599e-11 5.869993149255493e-05 0.00010014177990363187 0.00013094327517560288 0.00015532793131772487 0.00017605969217949306 0.00019501820423552404 0.00021357366973954146 0.00023285147169688667 0.0002539446076785031 0.0002781391868111413 0.00030724202749119936 0.00034420351091141296 0.00039461676918680727 0.00047182260199049575 0.0006280350526951007 0.0012127742236876648 0.004396783078886494 0.014657987153654883 0.00019681084121834748 2.2002521686318388e-06 0.019531656818298368 0.018521912681699948 0.015505202477819918 0.009618753476960392 0.00488821408750563 0.0024679751847673514 0.004428814647151564 0.01264559968981809 0.019456383483466035 0.01783116195281746 0.012477657103921465 0.008761536383779278 0.006944590333102229 0.006132181739446518 0.005812204576197723 0.005793324490866975 0.006055081137505404 0.0066703111928781075 0.007841017202350574 0.01004473957163879 8.843355878109643e-11 5.412301387323902e-05 9.418445114464564e-05 0.00012518510814574303 0.00015048717523919637 0.0001724097983669949 0.00019261230796707626 0.00021236249643132534 0.00023273722443119756 0.00025480342719175046 0.0002798241149298615 0.00030957671166281195 0.0003469663895455262 0.0003975134932248713 0.00047442422474370713 0.0006293413857324043 0.0012060171181282285 0.004343837602763875 0.014552249737173215 0.00019514710041806184 3.795167002185582e-06 0.026327206244433434 0.02668699879366525 0.02706417645861919 0.02653277290018973 0.022097122445021534 0.014646897459989074 0.009188066860184325 0.00999656289702372 0.015417975818272556 0.01779114972465145 0.014993676291395997 0.010963565542812706 0.008209457433958164 0.006828361197557821 0.006261884586001145 0.006142861020266647 0.006366517545197353 0.0069799396780891015 0.008182829534120811 0.010469995117873861 8.218529717621625e-11 5.0477405125073304e-05 8.935028633159018e-05 0.00012047258701536013 0.00014655376975139688 0.0001695456865513201 0.0001909059785011245 0.00021179120100582903 0.0002332127725670844 0.0002561907731156427 0.00028194335038784314 0.00031219211872096625 0.0003497616434361187 0.000400035532883403 0.00047592077774129266 0.0006276791067884697 0.0011879771448618632 0.004243934500021548 0.014362725359965868 0.00019331451220659041 4.972191475999122e-06 0.020211604223850873 0.02096484914764805 0.022457932225433113 0.024815636747893766 0.027976555267523278 0.027140274999783803 0.021593583633018127 0.01629381703924342 0.015479735693614707 0.016972653812026933 0.016344394865948048 0.013341464868951781 0.010123403046434588 0.007973347589247653 0.006908180516689061 0.006553391002569159 0.0066792768398889054 0.007265354831072144 0.008497012670809292 0.010899979253693879 7.714700043963374e-11 4.7493318902443895e-05 8.534254706891409e-05 0.00011655490542139961 0.00014332687893345308 0.00016730089126128456 0.00018974837228207488 0.00021170938861450259 0.00023411566036835154 0.00025792167648464026 0.0002842772794367829 0.00031481846298926647 0.0003522463259614507 0.00040172991035578785 0.00047567130398918804 0.0006219662326006381 0.0011558109190348232 0.00408597185460882 0.01406476021262542 0.00019130731247498763 5.525614163059671e-06 0.013035491138192802 0.013589011725092328 0.014573012106016706 0.016150560115539118 0.0186381844071502 0.02233517193470037 0.024108293413086096 0.022325148127751448 0.019619034666179813 0.01840471560775091 0.01757114148632037 0.015467612043348653 0.01241922895203387 0.009677419475110024 0.007923477053577828 0.007119971159592674 0.00702550425906233 0.007529841409736052 0.008775267485033463 0.01132295547084447 7.295446673748056e-11 4.4981194859530436e-05 8.193831235865903e-05 0.00011322686259740665 0.00014062808421443266 0.0001655167861971289 0.0001889891676411019 0.00021196455224397844 0.0002352812276742108 0.00025980921114525504 0.0002866062704739181 0.00031719042614091993 0.000354089165884166 0.0004021664619958027 0.00047308344521820953 0.0006112765415817259 0.0011074424209544778 0.003860843664099136 0.01363078702985529 0.00018905692111199015 5.755497068177077e-06 0.009170075904863512 0.009599083324884825 0.010219295135965908 0.011089432316966002 0.012332386882596046 0.014211709867216015 0.01732728031498896 0.019967857593840285 0.020637027305865148 0.02008214748222305 0.019138536466048423 0.01747079094602574 0.014832296481908027 0.011861368923914928 0.009438934308189153 0.007986939874232305 0.007479291664092869 0.007792911162301801 0.009012284892271245 0.011728178019577085 6.936156144359945e-11 4.280836773758417e-05 7.897212945399933e-05 0.00011032862122426783 0.00013831175527356717 0.0001640586194653627 0.00018849835994036234 0.0002124229592134998 0.00023656523466505182 0.00026169130018330534 0.00028874230436501673 0.00031908441574556403 0.00035501637552239323 0.00040099691556140467 0.0004676953451125319 0.000594997643759962 0.001042070623957161 0.0035629626266150904 0.013031064550564055 0.00018641694551934783 5.8607429141378835e-06 0.007270030752857452 0.0076816449822833185 0.008184966764430377 0.008796696323228236 0.009554398503343695 0.010539811742456546 0.01205926889229809 0.014647333076766827 0.017286935126303325 0.018954629543136044 0.019460284569468918 0