# vtk DataFile Version 3.0
vtk output
ASCII
DATASET RECTILINEAR_GRID
DIMENSIONS 41 41 1
X_COORDINATES 41 double
0 1 2 3 4 5 6 7 8 9 10 11 12 13 14 15 16 17 18 19 20 21 22 23 24 25 26 27 28 29 30 31 32 33 34 35 36 37 38 39 40 
Y_COORDINATES 41 double
0 1 2 3 4 5 6 7 8 9 10 11 12 13 14 15 16 17 18 19 20 21 22 23 24 25 26 27 28 29 30 31 32 33 34 35 36 37 38 39 40 
Z_COORDINATES 1 double
0
POINT_DATA 1681
FIELD FieldData 1
Concentracao 1 1681 double
0.0 1.6178405477521433e-22 -3.477777427888691e-20 2.9321385237598264e-14 2.945198159879383e-11 1.1083406998108047e-09 1.0451694457514306e-08 4.370603731350222e-08 1.0614102409151527e-07 1.757677175161365e-07 2.212958510634206e-07 2.2960969933191915e-07 2.0675030103767444e-07 1.6489384439284063e-07 1.201428348655929e-07 8.196493473141847e-08 5.3683322325291444e-08 3.377104800884889e-08 2.1644980840817125e-08 1.5237797745534768e-08 1.2624694903513365e-08 9.599025014380452e-09 5.239684185836182e-09 3.076507425593189e-09 4.165459398479594e-09 1.9098044355182164e-08 5.758213983124447e-08 1.0430580853183487e-07 1.3039257615023142e-07 1.2688065916421414e-07 1.0676280249495227e-07 8.521424375861145e-08 6.912270358510099e-08 5.895946439469776e-08 5.309438169253997e-08 4.995698346982108e-08 4.84720661392277e-08 4.794124221973791e-08 4.7893993014850836e-08 4.8009372069626945e-08 4.808413724407579e-08 -1.245588185637606e-21 2.0223023025307268e-16 -4.34722515066473e-14 3.665176086838307e-08 3.681500645047388e-05 0.001385426975721271 0.013064628448162034 0.05463258891640582 0.1326763800687235 0.21970981846736773 0.2766200343880733 0.2870123443426626 0.25843808098157095 0.206117469927222 0.150178663724826 0.10245625037920783 0.06710420658993663 0.042213843763361965 0.027056247497747744 0.01904726219556344 0.01578088125408661 0.011998790835029827 0.006549610471979413 0.0038456373047032954 0.00520682841355889 0.02387257454202206 0.07197773237119542 0.130382364637671 0.16299085058036542 0.15860095065984423 0.13345360988149282 0.10651788971442491 0.08640344860407982 0.07369938945283659 0.06636803021005666 0.06244627925872791 0.060590131100694555 0.05992660065520452 0.05986753913472417 0.060011763096405754 0.06010521961692243 1.6535673611195447e-18 6.575003716083117e-13 1.9314220097169876e-09 2.4964942216885097e-06 0.0002796775847678549 0.00537091236231095 0.03587882560209208 0.11902377261373337 0.240451813033138 0.3368808167486811 0.35776878825650227 0.3064532341186086 0.22018318176110413 0.13713824637853184 0.07671358642481656 0.03962618888220679 0.019185308359555404 0.008887553004619787 0.003409565656583199 3.754306919374829e-07 2.7924234909527296e-06 0.009859470703322272 0.00645892912787562 0.004288411736097919 0.011301293083011116 0.047623882568467286 0.11361956970787157 0.16701025332524497 0.17205311952835184 0.13834202044367752 0.09596998220166231 0.06352349614232765 0.04388589451923327 0.033336702010622346 0.027980180327833667 0.025393031453583775 0.0242862675371876 0.02396487035427419 0.024012409136830278 0.024159320821935334 0.024238733981591265 3.4439040163753316e-13 1.7184518710093542e-07 4.484264973661813e-06 0.0001204301593353491 0.0022058944490852966 0.019119140636563538 0.08276658964842895 0.2069558281954689 0.3381664045130907 0.3960776755413277 0.3558303865372543 0.257300879343861 0.1546311036513989 0.07990026726038828 0.036617677147271224 0.015172644657222045 0.005682490709201589 0.0018866840666252247 0.0004005742862248152 2.5881437658497636e-08 6.323833117494952e-07 0.0066988036548551915 0.004701422148708705 0.0058832217693432515 0.024683306475072504 0.07533168785776492 0.13500037940737386 0.15798026598047973 0.13378462949008735 0.08957976198842207 0.05180872336361238 0.028612233175513917 0.016792008158271327 0.011304423280649558 0.008835185738240343 0.00775281460722355 0.007333486432208392 0.007240813323750998 0.0072928092203062116 0.007374777519145709 0.007415013704716973 1.3882187618267236e-10 7.626254981330862e-05 0.0004405488202215076 0.0026195841807120156 0.014854019640691463 0.06224530907949322 0.17189174800741763 0.3171207419971659 0.4125035624560025 0.3999505902167094 0.30275168651441614 0.1851852511738066 0.0935212792343288 0.040371714742656835 0.015263410539132697 0.00508957191667414 0.0014738059463648321 0.00033713486966706124 4.6819183289510976e-05 3.241870486003374e-09 6.188090634254809e-07 0.006467033133365931 0.007621643566047543 0.017941267901227208 0.050883882266082696 0.10111896421120534 0.13345684390697019 0.12404472461945348 0.08696840259603796 0.0492057015438717 0.024181958405561914 0.011330045300597152 0.005688714375556689 0.0033945868765527624 0.0024743264748773803 0.0021084905522190805 0.001982188873172296 0.001966498195822199 0.0019969982905056393 0.0020335136713673253 0.0020504772148777508 3.814699015403255e-09 0.0021926720520648534 0.007414837433567923 0.022714866044855904 0.06601388191081138 0.16154021071724137 0.3014507820780764 0.4165125623999293 0.431853867504252 0.3455356262700916 0.21942129675036595 0.11298743158623588 0.04769016837183425 0.01706342420105455 0.005284126561663073 0.0014118166596214263 0.0003139354377187312 5.2649275116752646e-05 4.974447603829894e-06 3.3742366115905114e-10 5.710008790814237e-07 0.016748947092297423 0.024116016795587256 0.04434874545386835 0.07832187804772608 0.10689656611823517 0.10719739872441135 0.08079180249429407 0.04780120445434452 0.02334742960640713 0.009994260057350927 0.004072840959645 0.001779840715843919 0.0009480762405145699 0.0006475435212353275 0.0005392541824131944 0.0005070871233242232 0.0005082040206772246 0.0005224114644915652 0.0005369974871562989 0.0005434889566545886 3.044399716685374e-08 0.017955955838475365 0.04518240165745324 0.09519560277634755 0.18393037310915916 0.30860168606711164 0.42067746936902656 0.4502776461869714 0.3769422088693742 0.2495823130504644 0.1326416603797815 0.05719451524700453 0.020039672164814355 0.0058618704011065455 0.0014726956953749982 0.0003134439028495555 5.405398852654379e-05 6.769700230640562e-06 4.6077220406075367e-07 3.2634233692892204e-11 4.5034408063640367e-07 0.032699893928219495 0.04446865543756398 0.06366582259922063 0.08189996966723555 0.08468942120919981 0.06807734286693805 0.043045646845654775 0.022074009077905646 0.009546451487734609 0.003657609418261893 0.001334483450564816 0.0005203159422728674 0.00025097180929974506 0.00016198958050639068 0.0001329365669470106 0.00012603689509710502 0.00012844619218735148 0.00013430991884205818 0.00013979506235800717 0.00014217035528967423 1.1573602701399025e-07 0.06940836586391905 0.14176566201038068 0.23192555833662742 0.33874237017192854 0.43101324282244036 0.4568086170510228 0.3914973369828472 0.2686244136849199 0.14788659602882478 0.06570306157800766 0.023620794683685924 0.00683307602741089 0.0016062295653752744 0.0003238973253033243 5.466396984243808e-05 7.333385692965207e-06 6.981480930598789e-07 3.517277094239225e-08 3.429791281759881e-12 2.824702425336311e-07 0.03724547918476742 0.04755020010982609 0.057231478843384816 0.05939591152552124 0.050195973919479206 0.03400984945251615 0.018689958470158464 0.0085441082993818 0.0033574904377253697 0.0011826828280778923 0.0003977928802786759 0.0001423753742764847 6.344877446968673e-05 3.917925332929352e-05 3.2015537216392435e-05 3.089650310959943e-05 3.227219489792062e-05 3.4532060752019207e-05 3.653225718418952e-05 3.738528187347221e-05 2.6752693812750887e-07 0.16237887966052955 0.2790540563395105 0.37501974188907516 0.4419043859858499 0.4515824597556818 0.38739791417671154 0.2721640133403482 0.15479060994873906 0.07108401014730202 0.02635788842602448 0.007867191223079785 0.0018699811678703352 0.0003465385934654502 5.5368675299233995e-05 7.3560589749748005e-06 7.676416659312035e-07 5.5971913244134644e-08 2.1256088582061207e-09 6.001607638381509e-13 1.375177642306507e-07 0.027257049225498323 0.033087940816673135 0.03510723372025443 0.031216997782580618 0.02270869090450307 0.013494854666033217 0.00664856463929158 0.002781246378605754 0.0010174999885846454 0.00033787244424232204 0.00010769371470683332 3.642404007759427e-05 1.535841052023137e-05 9.216242151188798e-06 7.593292753352129e-06 7.542726019712315e-06 8.151594173738655e-06 8.990739547176767e-06 9.713199047345578e-06 1.0019911919961368e-05 4.3562281058316107e-07 0.26695233036717014 0.3898877296795534 0.4413609070470683 0.43322466959271877 0.3663589229641213 0.2600380022630896 0.15168352564583137 0.07188112513525705 0.02753199610525322 0.008490352430557962 0.0020926143782875623 0.00040631959423309403 6.0723032431393855e-05 7.469997162235758e-06 7.721160685672622e-07 6.228694727608991e-08 3.478959705349379e-09 1.0020281018440019e-10 1.5525869856404547e-13 5.206768081782784e-08 0.013897966187113614 0.016207739089070927 0.015613172326966582 0.012355518005329597 0.008019797692145668 0.004310035718508287 0.0019537725572870944 0.0007653688149998854 0.00026650432404428076 8.535332123491955e-05 2.6443765597273265e-05 8.691232009541313e-06 3.557589500626825e-06 2.113527201068864e-06 1.7817798186874463e-06 1.8460266514772438e-06 2.0877573616789566e-06 2.394780142350185e-06 2.6576990741575454e-06 2.770014593107648e-06 5.52171687650719e-07 0.34124117993410763 0.41985652810383095 0.4029923709689373 0.3336466336076308 0.23631589218480714 0.13990486501329882 0.0679788339432072 0.026817187999801092 0.008532897606304176 0.0021751844089986454 0.00043945696098044953 6.914571747883126e-05 8.264188783467966e-06 7.575372835352953e-07 5.990697227129364e-08 3.6926681680278498e-09 1.5693785655976303e-10 3.4209969746196326e-12 3.869458880193504e-14 1.5467319971292374e-08 0.005197779130611849 0.005866894277041618 0.005234048751675732 0.0037832229169141255 0.002249148000193987 0.0011196057474383188 0.0004771890104312247 0.0001786251721782245 6.038611284306999e-05 1.9045632456362887e-05 5.870325937512413e-06 1.9252451027590768e-06 7.856477092259491e-07 4.7204937114993663e-07 4.143478373966432e-07 4.548751219070823e-07 5.458782693109307e-07 6.585216492961831e-07 7.564329845001665e-07 7.989706175031656e-07 5.863408403679016e-07 0.36535617565322753 0.36792832250039065 0.29779138038253333 0.20783782692591665 0.12317037792791163 0.060651149175442634 0.024433504177903968 0.007974445715955658 0.0020922937662155145 0.00043717259313259165 7.171611082851469e-05 9.047735927127546e-06 8.544506481897148e-07 5.8655598659773024e-08 3.405826118106533e-09 1.5744557835936252e-10 5.020421257207278e-12 8.197187991619198e-14 8.041019568362652e-15 3.6266611663704762e-09 0.0014685950770966594 0.001613305582796761 0.001352180993374799 0.0009098190196060653 0.0005053619578208636 0.0002375252349034294 9.692785902250733e-05 3.528546970277297e-05 1.178877902005996e-05 3.731603827010191e-06 1.1690834571926337e-06 3.9233317088035065e-07 1.6403034084323915e-07 1.0213129408050648e-07 9.531518008646534e-08 1.13043489304977e-07 1.4648298845086387e-07 1.8852044866622594e-07 2.2638948966845085e-07 2.4332579258995975e-07 5.376877318872594e-07 0.3350857584084888 0.27127917641889315 0.18388899165978584 0.1074054400708134 0.052625739009440724 0.02110676771546856 0.0069546531883591485 0.0018594729677113306 0.00039850777804330793 6.757984069142432e-05 8.904060102119343e-06 8.893652336007629e-07 6.534947649723444e-08 3.4175501770122323e-09 1.367194092417483e-10 4.618160022907867e-12 1.0817820918545926e-13 1.3000506447860215e-15 1.3486463653251807e-15 6.703288899865994e-10 0.00031739444241481824 0.0003407873479545736 0.000271289018728871 0.00017240892754189022 9.08880641673564e-05 4.0967887883835494e-05 1.6253221313198997e-05 5.842340167930238e-06 1.9596261168713857e-06 6.332915908397072e-07 2.0570159559915057e-07 7.235600325294423e-08 3.1877807371588004e-08 2.1153835181529708e-08 2.1539113645012345e-08 2.8282659763337277e-08 4.0469428247029775e-08 5.6631922726389186e-08 7.205168235906256e-08 7.927220284745412e-08 4.4009846926878656e-07 0.2726641846966185 0.17489428744337135 0.09820674254320712 0.047455294523350205 0.01902335021763314 0.0061690450825966055 0.0016233104028954947 0.00034122148865753697 5.748902343200197e-05 7.827316371576077e-06 8.188572412676768e-07 6.385695627046017e-08 3.585729648349063e-09 1.397359236338122e-10 3.642900662719358e-12 8.631456407838748e-14 1.4448254219455121e-15 1.2484681303501913e-17 1.789809446961335e-16 9.650826090075855e-11 5.228551460280325e-05 5.5055657502422354e-05 4.1987931644023e-05 2.5494170313750723e-05 1.2916034628894604e-05 5.654837135680477e-06 2.2090040282617558e-06 7.942361210182111e-07 2.711198289960347e-07 9.082045700444341e-08 3.1142282318913886e-08 1.1748496106548626e-08 5.615746442280253e-09 4.103230352883984e-09 4.709327337071985e-09 7.0680333008125055e-09 1.151374213784428e-08 1.7962841402816605e-08 2.4685596159428264e-08 2.803072892208766e-08 3.320399125926672e-07 0.20317225242842377 0.10186132887633681 0.04646130856329058 0.018149068669991726 0.0058306729544191395 0.0015029389572284854 0.0003122022312789006 5.1258807999695685e-05 6.639853054718938e-06 6.784931030056838e-07 5.4023614458474665e-08 3.235725589589316e-09 1.361385844186512e-10 3.849469858728116e-12 7.012826222657463e-14 1.0309512050314488e-15 1.1904509435048183e-17 7.185041102311057e-20 1.8219004498229078e-17 1.0529339467106316e-11 6.422221020584381e-06 6.649990477702404e-06 4.89221979747655e-06 2.864034319301332e-06 1.4084371683351295e-06 6.050925304633058e-07 2.3515008214269354e-07 8.546341838132154e-08 3.002725644742166e-08 1.0561849456382348e-08 3.885134576089645e-09 1.6063189226018737e-09 8.583314270712475e-10 7.169814750205143e-10 9.666526318600352e-10 1.7331322015719313e-09 3.3473988963871475e-09 6.054318410130741e-09 9.201856027903569e-09 1.0940954112348285e-08 2.3844040538926225e-07 0.1428807827737205 0.05469493892702018 0.01956865225616704 0.005945884240426473 0.0014685414068329795 0.0002930213685949501 4.7148792235573635e-05 5.9765162295759025e-06 5.91646010867546e-07 4.5340421175904245e-08 2.625913762064658e-09 1.0973686715722824e-10 3.392497204303247e-12 6.7695741582793e-14 8.291133675091642e-16 6.9088177888513295e-18 5.314484971570508e-20 2.201448770885278e-22 1.3447711844346761e-18 8.250145901429892e-13 5.594683509432314e-07 5.709169975139136e-07 4.0741197182400913e-07 2.316149300306885e-07 1.1142657861472739e-07 4.734663825998181e-08 1.8448969500871124e-08 6.83232661685243e-09 2.492294909715492e-09 9.300049214370943e-10 3.719783053225725e-10 1.7189047144473925e-10 1.0580110628355178e-10 1.052810954126507e-10 1.7558072071223113e-10 3.9940636679609077e-10 9.827466896058287e-10 2.1464818240545557e-09 3.7973986511563155e-09 4.7932881352989395e-09 1.66546676737924e-07 0.09558553330245877 0.02766344235491234 0.00725483135207641 0.0015273855331207704 0.0002764336156190414 4.108780495533633e-05 5.003719060538475e-06 4.822146605709761e-07 3.616080554878695e-08 2.070467497229124e-09 8.733282431630512e-11 2.549514084553345e-12 5.134420110525823e-14 6.948253094692818e-16 5.5129295973735215e-18 2.4633446725811598e-20 1.2253429114400302e-22 4.388363306201574e-25 6.443443656411116e-20 4.1635628922127953e-14 3.1081372258373674e-08 3.13113025940973e-08 2.176894879517735e-08 1.2083674091924875e-08 5.719765239784183e-09 2.4172448031571926e-09 9.495495683636645e-10 3.6024012137414966e-10 1.3722169185975467e-10 5.471435536283654e-11 2.4043124037227976e-11 1.2628951781660456e-11 9.205529639802748e-12 1.1410186099804937e-11 2.4743091520210812e-11 7.842465807477008e-11 2.7046822047891827e-10 8.350847337104774e-10 1.7070516499953063e-09 2.4089334066058355e-09 1.174814955934844e-07 0.06420138092278985 0.012219088029122822 0.001727092571347058 0.00023702859250629644 2.907909283177197e-05 3.1053693531191073e-06 2.787254760329584e-07 2.0104224082572125e-08 1.1309618433643455e-09 4.8138768368584864e-11 1.4772382187262222e-12 3.0225715113736106e-14 4.005453356026875e-16 3.1951820816444683e-18 1.622008864313503e-20 4.6014096045554124e-23 1.8783216105612924e-23 7.340335762720799e-25 1.5137738837776892e-21 1.0239553348653158e-15 8.342158498733532e-10 8.304645514300551e-10 5.644476569884339e-10 3.0714940337866805e-10 1.435931004018216e-10 6.056172470068157e-11 2.4050578496677265e-11 9.37069141420964e-12 3.73708607682602e-12 1.5980558434574014e-12 7.766449761877806e-13 4.69535104110888e-13 4.157082202716471e-13 6.643132372341516e-13 2.0221322629018406e-12 8.841083741734175e-12 6.402197100802955e-11 2.6555250581026856e-10 9.107668048033833e-10 1.3765468484545123e-09 8.551561315338396e-08 0.04683440291655272 1.2540505739242251e-06 1.1138262712502788e-07 1.6362596862947554e-08 1.9556773193746304e-09 2.0724335549292316e-10 1.9518911864034403e-11 1.948856054931884e-12 3.031766475826194e-13 6.767654791740874e-14 1.4806458522707303e-14 2.739261973555923e-15 4.130317425766762e-16 4.962726026530007e-17 4.597096039730604e-18 3.099042330633771e-19 1.359468913808448e-20 2.9292005786262576e-22 2.3042319984189856e-25 7.347233764479688e-20 3.6898490596363364e-14 6.128327807540129e-14 4.4785405545173073e-14 2.332589400681003e-14 1.0414650551592629e-14 4.177530809991996e-15 1.580578757352448e-15 5.87938826524485e-16 2.245050840836652e-16 9.229377144674514e-17 4.3444746748549725e-17 2.586212286243706e-17 2.323405575305645e-17 3.8276195400165746e-17 1.1686109135193778e-16 4.720899399910684e-16 3.847803499528698e-15 1.9325550677499205e-10 5.267289048314811e-10 8.440060459777e-10 6.66075038529206e-08 0.03819668398822119 4.299312560331148e-06 8.69092422222851e-07 8.387996387034937e-07 7.659761561162553e-07 6.041186947518066e-07 3.8520276150640806e-07 1.9405236926501362e-07 7.730715275540016e-08 2.4550694974589208e-08 6.257300049817086e-09 1.282213966027562e-09 2.100795379313989e-10 2.709624283881247e-11 2.6689992172538433e-12 1.8985491403431667e-13 8.731950136550848e-15 1.9623368949188997e-16 1.2530734121688912e-20 7.25125133466939e-24 2.2837926056533774e-18 5.0833948593489305e-18 3.3871654439778313e-18 1.7080427619917206e-18 7.2642469189591105e-19 2.783886039169915e-19 1.0069933353186165e-19 3.5884770082531903e-20 1.3173853254957709e-20 5.473062106508894e-21 5.86857663906506e-21 3.685210451532873e-20 2.7682172466116615e-19 1.6591218085862798e-18 7.780375523148981e-18 2.853281307582081e-17 2.320967439135696e-16 1.3282835338480566e-10 3.5614281875135114e-10 5.353952288479267e-10 5.074200471492656e-08 0.029987987179134853 0.024035731578539513 0.016747696176652758 0.013363389694922418 0.024631211238148418 0.04424038919804062 0.04997617145363419 0.03715886745949199 0.019536423107922127 0.0076323044114310675 0.002284448966229019 0.0005323144140217397 9.689264675956061e-05 1.3644353558645306e-05 1.4478290291076262e-06 1.0978529418783345e-07 5.337380901873533e-09 1.2586019423417585e-10 5.409827915860434e-15 3.267807560508104e-19 3.835437661217332e-22 3.945010758141972e-22 2.552320435338732e-22 1.2010932887894906e-22 5.172163586062957e-23 2.559092418198754e-22 1.2842456769753317e-20 4.655544672596189e-19 1.1752973889827822e-17 2.1265453209699873e-16 2.82663067128268e-15 2.8179918457978722e-14 2.142980988667784e-13 1.259229709330679e-12 5.767175596374881e-12 2.0635214583590274e-11 5.7500642810116746e-11 1.241371110459976e-10 2.2461889255827738e-10 3.2433871740045875e-10 3.279113759499056e-08 0.017345734996418463 0.016854726969497406 0.012043880122839776 0.013778483307507926 0.03389922336684428 0.05960079964361149 0.06367133441314386 0.04512595365445143 0.022822619037238857 0.008636975956493563 0.002517343709396235 0.000573488268222214 0.0001023818789963317 1.4176895804359312e-05 1.4823997478705555e-06 1.1095608902806823e-07 5.33212614504198e-09 1.2437744943104822e-10 8.925661548719205e-15 7.231386743241048e-19 5.574436511851808e-23 9.664510808450467e-25 8.098310868721625e-25 5.308996699480843e-25 1.1509762502249437e-24 7.882287729800901e-23 4.587407735129125e-21 1.7768829004751148e-19 4.744474333131105e-18 9.00926718205495e-17 1.2489641800066372e-15 1.2919857152041049e-14 1.0152031219817885e-13 6.1424415146369e-13 2.8934872909407523e-12 1.0601382141039946e-11 3.16325874049185e-11 6.708004826196348e-11 1.3278820220671088e-10 1.8056035154273902e-10 1.9277264635830396e-08 0.01016534176384766 0.010963634875117706 0.012167382565098929 0.02699509774524293 0.06031153097508897 0.08471526823183381 0.07662787471645785 0.04806368949855121 0.02212565738355384 0.007765686591415639 0.0021275195958960977 0.00046025410283199216 7.86593440847809e-05 1.0496114473353705e-05 1.0633352471782821e-06 7.745393730335094e-08 3.634947322677327e-09 8.303931144089049e-11 6.390100688295541e-15 4.731613981875347e-19 3.5147622679499114e-23 4.003844800366741e-27 4.491899374923545e-27 4.6013562842281395e-27 1.0052369143680329e-25 1.1723907414743968e-23 8.456766434319554e-22 3.875885588619991e-20 1.1843848112343846e-18 2.5104150009310465e-17 3.812587672298642e-16 4.260275522676473e-15 3.578550388557121e-14 2.2995541649354983e-13 1.1443503942325683e-12 4.476558007192194e-12 1.3801573473730097e-11 3.261162461478449e-11 6.292733339001496e-11 8.716661773412022e-11 1.8799464192357924e-08 0.01050486463418696 0.019628824484028085 0.03720749767872616 0.07031156764044855 0.10430048094621115 0.10850391325847777 0.0797951151286231 0.04308054652108815 0.01769424581290633 0.005677324643382637 0.0014472348683550608 0.0002952982507709379 4.811903864925555e-05 6.175999765858084e-06 6.061286578294501e-07 4.301522749499676e-08 1.9755743025945824e-09 4.4308953596092835e-11 3.243726741652355e-15 2.3328890951974715e-19 1.627870237258028e-23 3.896003813819365e-27 3.039024901483898e-29 4.988321739025898e-29 3.590878400421147e-27 7.5720539910635225e-25 8.228218580741358e-23 5.0993833852495674e-21 1.959613327218941e-19 4.967724808671635e-18 8.708095989117109e-17 1.0947364751423663e-15 1.015780946235132e-14 7.115269036276175e-14 3.8315369378785386e-13 1.6065189697499462e-12 5.280505444144432e-12 1.3148489638917321e-11 2.614696478711592e-11 3.633193411696812e-11 6.059536330601715e-08 0.035776068614889286 0.06811991395669185 0.10326425460188775 0.13454838854670917 0.14077399866967907 0.11240140079717531 0.06804687908768015 0.031745011418067105 0.011649934177291646 0.0034217935457468924 0.000813365087446886 0.00015703557660978697 2.4501948879457302e-05 3.0406179563376486e-06 2.908008174475162e-07 2.0236611479429366e-08 9.155075642577354e-10 2.0289218695933102e-11 1.4045192662155681e-15 9.655047272051073e-20 6.476168666845459e-24 1.2792488043397551e-26 4.2395645618830545e-29 6.924105623480354e-31 5.474481674397456e-29 1.7520918667522374e-26 3.8635803406182294e-24 3.9484410434093563e-22 2.1709332168071697e-20 7.1826032016289515e-19 1.545482681159622e-17 2.286113169559868e-16 2.4221393637898263e-15 1.8959310169085838e-14 1.121968931886301e-13 5.09893721103441e-13 1.7852339664078732e-12 4.71064186574633e-12 9.60411359216881e-12 1.3459021345395275e-11 1.646779833478192e-07 0.09892138025558181 0.15290006142560372 0.1785703906742184 0.17512132483756412 0.1413490946560376 0.09131106625547533 0.046828475330464595 0.01919708776005577 0.006367569669090068 0.001728036536791077 0.00038630192268712747 7.117376798814121e-05 1.072653621623231e-05 1.298687147372447e-06 1.2216536598486091e-07 8.413918754723386e-09 3.7840564581231905e-10 8.35876532517545e-12 5.430383303844319e-16 3.5794008767554994e-20 2.297776600358685e-24 9.429806398607882e-27 7.024314087628264e-29 6.855433781601287e-31 8.666328144551953e-31 4.327915848336616e-28 1.3723091794896251e-25 1.9121387926663065e-23 1.5829725835605433e-21 7.60000805823867e-20 2.1603715368702926e-18 3.957797653284554e-17 4.963887242454049e-16 4.450929847370925e-15 2.942550237323187e-14 1.462541060527873e-13 5.495961784408487e-13 1.5330544497289947e-12 3.221584941372642e-12 4.5480172309556445e-12 2.865161081729537e-07 0.17367612770015436 0.22006924923760635 0.20721551903155924 0.1634005734078193 0.1079443660624153 0.05882926740220543 0.02627859761597948 0.00965194426276203 0.0029371500147635727 0.0007458991360204079 0.00015867140564495143 2.8217676082234062e-05 4.154843210942439e-06 4.964555923641329e-07 4.646483793095345e-08 3.2035354153471733e-09 1.4483229073895794e-10 3.222666793413247e-12 1.9641543643339927e-16 1.2422998317591651e-20 3.218214022070669e-24 5.860411166403188e-25 7.53868416083402e-27 8.867234189800254e-29 1.6776897171786776e-30 1.0752892359412472e-29 5.108913230582091e-27 9.902901427430164e-25 1.0810183489443178e-22 6.6100969871292215e-21 2.3873980962218914e-19 5.721731780221022e-18 8.838096041895772e-17 9.333660933206815e-16 7.024223220680963e-15 3.867446945274278e-14 1.5727628000918843e-13 4.657268039519742e-13 1.0119708433390482e-12 1.439790834276863e-12 3.5361394423458087e-07 0.21561133874168936 0.22668997168861268 0.17691827213720004 0.1163974862834498 0.06524336416487699 0.03089291494088921 0.012295687847433479 0.004119859342726947 0.0011678822598847405 0.0002814082743573848 5.772059541508545e-05 1.0038293625484708e-05 1.463118212904711e-06 1.7483716958276348e-07 1.6499371654522118e-08 1.1540004421040115e-09 5.3132738707748326e-11 1.2059464134643971e-12 6.910100856904979e-17 4.2027631337188505e-21 4.1110312575617812e-22 1.2865602010622887e-22 1.3445182720225547e-23 1.8005712661710802e-25 5.2634034943289714e-27 1.7113403826974613e-28 1.941589474596825e-28 5.250823547310064e-26 7.669085819463257e-24 5.998152750330952e-22 2.6845052271993432e-20 7.7776834455375e-19 1.4252802453643798e-17 1.760743526625655e-16 1.5432351958135736e-15 9.57107063674008e-15 4.265478451445878e-14 1.35070871265931e-13 3.0503088018117053e-13 4.3758810051995483e-13 3.4445538637934285e-07 0.21089733107736183 0.18410463370390215 0.12033307461237742 0.06722799109825628 0.032622181504485016 0.013678371175864446 0.004933679352257948 0.0015311524001590583 0.000410092702400504 9.50482479298083e-05 1.905653023051978e-05 3.2862617802832233e-06 4.809584911075389e-07 5.832636469737258e-08 5.634081902317325e-09 4.0590173000078046e-10 1.9324731052283212e-11 4.5418099076402204e-13 2.46077588145642e-17 1.4428324675349835e-21 2.886691780449416e-20 1.0352803748850288e-20 1.730888788211176e-21 1.1502529433478675e-22 3.033487301994712e-24 1.411489092370878e-25 7.021463468008395e-27 3.0994319005388384e-27 5.489195463924684e-25 5.547137437359453e-23 3.0838802751204408e-21 1.0776467686966393e-19 2.3298476525640817e-18 3.330812815131939e-17 3.31828467528252e-16 2.2990563235618634e-15 1.1240493222893792e-14 3.823921753629194e-14 9.016138898654607e-14 1.3057997738881748e-13 2.912158939081877e-07 0.17884112244582598 0.12895040304672503 0.07047700932515721 0.03354839491734776 0.014195424876029586 0.005320534247182383 0.0017574589497958899 0.0005108395972132599 0.00013079369340182723 2.9522123138101745e-05 5.8622111201128714e-06 1.0165518436864288e-06 1.51635586940962e-07 1.896096862460849e-08 1.9064526896806338e-09 1.4398104000084187e-10 7.218276896388596e-12 1.789576191114492e-13 9.259649741869696e-18 5.2597314915451305e-22 1.1089738221490781e-18 4.342867899527289e-19 9.371629738092602e-20 1.1107357975931822e-20 5.745422953108567e-22 2.9609168926998467e-23 1.9957466162624323e-24 1.3997166539082623e-25 4.85402451158468e-26 5.131916676485743e-24 3.5698372966296246e-22 1.508000727945083e-20 3.843371707568478e-19 6.342792610096235e-18 7.159498603650645e-17 5.524685890824285e-16 2.9576896409799023e-15 1.0808078115959009e-14 2.6644884866380854e-14 3.904758850612326e-14 2.325311898345935e-07 0.1431207700069691 0.08526578632886131 0.038798794777473174 0.015650956243670848 0.005753198158808315 0.0019259349055253169 0.0005838917373524828 0.0001597445009608814 3.938258834215591e-05 8.737361566035299e-06 1.7375619865477807e-06 3.069293262773719e-07 4.7357337680563845e-08 6.208284174028784e-09 6.618739485168889e-10 5.3476925680489606e-11 2.886105651971701e-12 7.727960828929977e-14 3.881457126206694e-18 2.333127076510112e-22 2.6414484040983308e-17 1.1028651706238533e-17 2.8146040806994745e-18 4.592906848683392e-19 4.5549824386290314e-20 2.6709549063483662e-21 2.3245472148593457e-22 2.1122322531855408e-23 1.960284259736875e-24 6.486928330311425e-25 4.118870293163623e-23 2.116277062006037e-21 6.380454492218685e-20 1.2178465472571204e-18 1.5594854291053554e-17 1.3418496175617737e-16 7.8783307165942e-16 3.1002982443911463e-15 8.015499280506625e-15 1.1919577528230347e-14 1.871894571859859e-07 0.1153971110748527 0.05788481817440192 0.022124159216956946 0.00755875879079038 0.0023982922838218013 0.0007112893559767347 0.00019661638394408702 5.044538055495544e-05 1.1971813359979999e-05 2.618668475873772e-06 5.248137940937711e-07 9.533033376385933e-08 1.5409126922614673e-08 2.1522840304758996e-09 2.481663122631456e-10 2.1962678427159373e-11 1.3114262116455972e-12 3.9129645127448337e-14 1.9616845878324126e-18 4.249098491599628e-22 4.20770811596963e-16 1.8461188859091507e-16 5.3153371192861604e-17 1.071838827433784e-17 1.5221061073188658e-18 1.4345810177196065e-19 1.3750834944236446e-20 1.5569161482250878e-21 1.8023208162128204e-22 2.106214506116155e-23 7.119016270538994e-24 2.961031978509738e-22 1.062776047718454e-20 2.3599134428904297e-19 3.4461345507508435e-18 3.322947457058428e-17 2.1500779800661049e-16 9.156738295831354e-16 2.4947738211136257e-15 3.77778841858281e-15 1.5741424140639424e-07 0.09714523070478893 0.04264150701736505 0.01415547239184024 0.004194240904725154 0.0011624039603990986 0.00030597942164375285 7.677814510418404e-05 1.8349081853945337e-05 4.1656412190037914e-06 8.946265357892006e-07 1.8050732597970745e-07 3.3819208456670687e-08 5.771998894100217e-09 8.707207339254924e-10 1.1079349579014568e-10 1.1038795355489868e-11 7.55525825171822e-13 2.622611204943978e-14 1.375283911631107e-18 3.816430198314065e-21 4.717377209753025e-15 2.1531088662334603e-15 6.792336872907526e-16 1.5960397197335335e-16 2.876988718906204e-17 3.945302844711457e-18 4.375769502382857e-19 6.011848797972579e-20 8.428681841807009e-21 1.1933350432960326e-21 1.695754739352353e-22 6.457046962742792e-23 1.7707032238713385e-21 4.6094433691010556e-20 7.74563868295931e-19 8.443863911732857e-18 6.071252363904857e-17 2.820116306320201e-16 8.152474344333222e-16 1.2629852404902166e-15 1.3936530730596276e-07 0.08606356223275222 0.034562177622420594 0.010450125177591498 0.0028142245654919464 0.0007101118609909462 0.000171367817353