# vtk DataFile Version 3.0
vtk output
ASCII
DATASET RECTILINEAR_GRID
DIMENSIONS 41 41 1
X_COORDINATES 41 double
0 1 2 3 4 5 6 7 8 9 10 11 12 13 14 15 16 17 18 19 20 21 22 23 24 25 26 27 28 29 30 31 32 33 34 35 36 37 38 39 40 
Y_COORDINATES 41 double
0 1 2 3 4 5 6 7 8 9 10 11 12 13 14 15 16 17 18 19 20 21 22 23 24 25 26 27 28 29 30 31 32 33 34 35 36 37 38 39 40 
Z_COORDINATES 1 double
0
POINT_DATA 1681
FIELD FieldData 1
Concentracao 1 1681 double
0.0 5.570311792274165e-40 3.0148883492719736e-39 1.2177128771527912e-38 3.8848413739221964e-38 1.038010743077237e-37 2.410960980032912e-37 5.00856807591028e-37 9.514356717204516e-37 1.6811478335192306e-36 2.8000264811131407e-36 4.4414391530323094e-36 6.763950876126053e-36 9.952892531658013e-36 1.4222584627761502e-35 1.981743586393781e-35 2.7014443574355767e-35 3.6124433128572993e-35 4.749308017894104e-35 6.150326982928341e-35 7.857644710498298e-35 9.918914291870935e-35 1.240409420194055e-34 1.5566843424239848e-34 2.1273891975110075e-34 4.480350002550011e-34 2.063275537117512e-33 1.4020614037545192e-32 1.0006005968525148e-31 6.972946650865403e-31 4.7448735212811104e-30 3.2143586336946233e-29 2.24875479588392e-28 1.7388181175596957e-27 1.7001720835033542e-26 2.7452912374987266e-25 1.2143297800191819e-23 2.361305884969217e-21 1.757654598020722e-18 2.4065972219635523e-15 5.3586430115732844e-14 1.4277630468179199e-39 6.962895310654498e-34 3.76861341800646e-33 1.5221423087460793e-32 4.8560556022441197e-32 1.2975144184567965e-31 3.0137034914574817e-31 6.260714730896741e-31 1.1892954692587938e-30 2.1014363461307253e-30 3.50003588587426e-30 5.551803116451396e-30 8.454945336580258e-30 1.2441125473816818e-29 1.7778244975706143e-29 2.4771814647358127e-29 3.3768081482388284e-29 4.5155575529791856e-29 5.936639571314223e-29 7.687914878987409e-29 9.822063745767584e-29 1.2398652056944559e-28 1.5505130156519887e-28 1.9458568308993287e-28 2.659238624277957e-28 5.600441983537516e-28 2.5790964766553118e-27 1.7525781458583445e-26 1.250751691120402e-25 8.716190216855594e-25 5.931096646474909e-24 4.017951420829325e-23 2.8109457261333573e-22 2.173524385767737e-21 2.125216804551276e-20 3.4316167921646457e-19 1.5179134393537574e-17 2.9516346716401848e-15 2.197069982251896e-12 3.0082489340516624e-09 6.698308993849103e-08 4.276918624655487e-33 2.0441686289830533e-27 6.357663054394425e-27 1.6878037544515938e-26 3.9884745206922295e-26 8.491911874089751e-26 1.6485755208276011e-25 2.9562637177479014e-25 4.957897433737665e-25 7.861820602169909e-25 1.1896606418576924e-24 1.730953736144818e-24 2.4366254572150255e-24 3.334986204165098e-24 4.456172435696038e-24 5.8320059124164685e-24 7.496073796752306e-24 9.483599274108508e-24 1.1831362175467634e-23 1.4577558860925004e-23 1.7761449893481103e-23 2.1422800008565855e-23 2.5601027566205188e-23 3.033352178524068e-23 3.5652007504702124e-23 4.157742973562989e-23 4.811247979082468e-23 5.52543682780299e-23 6.317732286927073e-23 7.352830692152381e-23 9.733058903029e-23 2.008812089020226e-22 7.796785625102994e-22 4.479414164315977e-21 3.558680046216584e-20 5.29002315215187e-19 2.409884498831885e-17 5.193874916064434e-15 4.152750968302529e-12 5.912167219088434e-09 1.336288942567126e-07 7.353134183315644e-27 3.711895463235658e-21 8.32663390200398e-21 1.598231212050795e-20 2.8843436446085366e-20 4.922235217708607e-20 7.956121965897499e-20 1.2225877559997262e-19 1.795803841476194e-19 2.536191537747082e-19 3.463007647011503e-19 4.594119714934977e-19 5.946317412347227e-19 7.535500899422425e-19 9.377010571136383e-19 1.1485615728305825e-18 1.3875601250466557e-18 1.6560748722225478e-18 1.955425299678292e-18 2.286854803659524e-18 2.6514989651003277e-18 3.0503136839274943e-18 3.48400129052266e-18 3.952774033309384e-18 4.455991799772415e-18 4.991462719510059e-18 5.554249977478344e-18 6.1344357331024994e-18 6.713265880609983e-18 7.256943313422395e-18 7.706841407436196e-18 7.968832309765084e-18 7.903063119682991e-18 7.352646195966568e-18 6.249012075922844e-18 5.2300951940329766e-18 3.049376223620504e-17 6.654302284092782e-15 5.8930775585835405e-12 8.781559587328873e-09 2.0022346457575036e-07 7.835701014444069e-21 4.11348440439212e-15 7.371098207312569e-15 1.117951810456054e-14 1.615365288187954e-14 2.2609089920727362e-14 3.070791441749426e-14 4.0516562379888604e-14 5.2037977398219967e-14 6.5236231176478e-14 8.005420629878806e-14 9.642647483153879e-14 1.1428706312418e-13 1.3357277979798755e-13 1.5422333702380726e-13 1.761829985057741e-13 1.9939955562998773e-13 2.23822509597888e-13 2.494018263071808e-13 2.7608580997097e-13 3.0381898249376473e-13 3.3253683572554674e-13 3.621591578519647e-13 3.925761327946013e-13 4.2362440777736087e-13 4.550454168734754e-13 4.864119382110911e-13 5.170008934475602e-13 5.455746643987061e-13 5.700164801889413e-13 5.868045195646352e-13 5.9001561618284e-13 5.715449665503978e-13 5.165331171271222e-13 4.179316410599926e-13 2.748355097234702e-13 1.5907193059730378e-13 7.84269761744288e-14 7.676944013796605e-12 1.1870789940594744e-08 2.6771050041233365e-07 5.325801819583401e-15 2.9181300901011885e-09 4.14044657488537e-09 5.118679052549309e-09 6.0996724916272975e-09 7.13726755549875e-09 8.230871564165833e-09 9.36511790901018e-09 1.0522580931266497e-08 1.1688054351213603e-08 1.2849567301588377e-08 1.3998148120408423e-08 1.5127396389159475e-08 1.6232702190394648e-08 1.7310883535229278e-08 1.835965611277585e-08 1.9377376429152045e-08 2.036278456501465e-08 2.131479272676586e-08 2.223241887131755e-08 2.3114605991577206e-08 2.396008722340231e-08 2.4767094147019237e-08 2.5532995965461606e-08 2.625369035399327e-08 2.6922502905653304e-08 2.7528365826650427e-08 2.8052732832037682e-08 2.8464294041435515e-08 2.87103931517614e-08 2.8700402779078387e-08 2.8292967403030806e-08 2.71843540863198e-08 2.5280768996884172e-08 2.0103173481107908e-08 1.4974637236683197e-08 6.1946649207115166e-09 2.1860441743102796e-09 5.445547643102507e-10 1.5769999134994832e-08 3.379630997916428e-07 2.007131766378724e-09 0.0012544558547039645 0.0012125814707798109 0.0011886987980733673 0.0011642375659266695 0.0011393798514176849 0.0011142590773736767 0.0010889340644360027 0.0010633713750175622 0.0010376060593776481 0.0010115884696819477 0.0009853143374274446 0.0009587913456794703 0.0009319687766789119 0.0009048638350521368 0.0008774545665522853 0.0008497367087231347 0.0008216779565699272 0.000793261670707823 0.0007644716703993106 0.0007353068542886936 0.0007057213043876738 0.0006756836313030196 0.0006451768996782287 0.0006141533810383852 0.0005825338748580185 0.000550267006600941 0.0005172380302779514 0.00048331194473214304 0.0004482254542256488 0.0004117620181469559 0.00037299653233120077 0.00033312267069631705 0.0002802380896687918 0.00028341846354989445 2.0657319304781592e-08 1.1446744613758824e-08 4.064134232073683e-09 1.1145046772026708e-09 2.1472989306879914e-08 4.1399109792003514e-07 6.889839950788166e-11 4.30609368229868e-05 2.9120591355786915e-05 2.788210096640221e-05 2.660250573620752e-05 2.529565735932423e-05 2.398559357788615e-05 2.2689101593244826e-05 2.141786308588072e-05 2.0182162332333374e-05 1.8995001582711227e-05 1.7879448124559825e-05 1.687394189863128e-05 1.603156643717735e-05 1.5407469124073016e-05 1.502879306569081e-05 1.4863478212328311e-05 1.4814142083163474e-05 1.474870779800005e-05 1.455476634428734e-05 1.4182699779802232e-05 1.3650765715176732e-05 1.3015978880143537e-05 1.2339151679265563e-05 1.1662719622925412e-05 1.1008977258696554e-05 1.0387015461583183e-05 9.799246557832792e-06 9.245642834877533e-06 8.725240171624867e-06 8.236970344944832e-06 7.779034513001831e-06 7.348959813332346e-06 6.93656913878671e-06 1.2540088820868743e-05 2.066714194753277e-08 1.1330561708349975e-08 4.581703234925541e-09 1.272231961088585e-09 3.078733092668069e-08 5.005926844268e-07 6.035457228915108e-12 3.757394696720721e-06 3.391217562015046e-07 3.523816170954202e-07 7.284162511544808e-07 3.540493347210988e-06 1.9135311171854663e-05 8.928601160127036e-05 0.0003532934210041189 0.0011964877570877907 0.0034925442489647527 0.00881243380766828 0.019223623927300253 0.036210730440740954 0.05879474081451534 0.08212464811667317 0.09846154027652437 0.10105504509038747 0.08849093683177041 0.0658310430579722 0.04137632663908698 0.021814975719744868 0.009559919790759538 0.003441568531309231 0.0010027738688703038 0.00023213370122245926 4.174791955853393e-05 5.699997353070732e-06 5.953758238430583e-07 6.588998920156452e-08 2.3763619819423288e-08 1.9473339385020044e-08 1.799231365957926e-08 1.7080814213732624e-08 1.6515190052412477e-08 1.5855034444182578e-08 1.0265914754018509e-08 4.9188420244283534e-09 6.269390941944752e-09 6.42751093793997e-08 6.049005966250248e-07 5.391163599787749e-12 3.3553288166141004e-06 6.73040548334081e-08 1.0387784609762443e-07 5.064036309386595e-07 3.351468550517683e-06 1.891959216743449e-05 8.832644635837498e-05 0.00034755477840005717 0.0011708812923891087 0.0034070692686349853 0.008591856279729563 0.018779191250203105 0.03551902207037775 0.05800916002247989 0.0816093926371742 0.09864880055403723 0.10216943257463786 0.09035526699735881 0.06794319590859141 0.043206378978007734 0.023075404685137215 0.0102591159046439 0.0037548125183176325 0.0011156971882510071 0.0002646976591466575 4.923500210740732e-05 7.0945169704299505e-06 8.220086999472606e-07 1.0433993301992848e-07 3.175141048675653e-08 2.1041095736474766e-08 1.7675045959833177e-08 1.5990510678830875e-08 1.4881293736238219e-08 1.3677854277620605e-08 1.1387896826296604e-08 1.223419833841875e-08 3.1898152464672025e-08 1.4234100150881454e-07 7.381241428626463e-07 5.290817007245711e-12 3.2928121603206923e-06 2.0139124456647184e-08 5.860020812761584e-08 4.4425128864330976e-07 3.152393107892219e-06 1.7948615630264853e-05 8.376008797376087e-05 0.0003289356984005059 0.0011067458977319037 0.003222459160658151 0.008152202550026078 0.017921205359475546 0.03417117959024013 0.05636606491770195 0.08021250315991807 0.09820243710330458 0.10312777047716751 0.09258573107576837 0.07077164114620946 0.045825830856286186 0.024974346968376193 0.011362705214013644 0.004272600603502626 0.0013117806468052502 0.00032447146623441973 6.394765140106891e-05 1.0103910338231959e-05 1.390950170976697e-06 2.3115701481770198e-07 7.336412051320479e-08 4.036226977758305e-08 2.9127903286700784e-08 2.4344517991218802e-08 2.2575195191527908e-08 2.303051613912326e-08 2.7468833766665772e-08 4.33324055837484e-08 9.652775730873981e-08 2.771412144599076e-07 9.177996743409707e-07 5.292106567941344e-12 3.293792798785183e-06 8.017598828958967e-09 4.3131102234241976e-08 3.910053625499616e-07 2.8489657059899716e-06 1.6346938841215994e-05 7.656512736882829e-05 0.0003013454539904555 0.0010163228877858416 0.0029706965863342915 0.007562549893948861 0.016774069934600334 0.03235176967512381 0.05409339970820022 0.07816708609619803 0.09732426977857495 0.10409495007120512 0.09533464590863462 0.07448357505593203 0.04941740373686853 0.027685631373992717 0.013006374651519931 0.0050810642587345144 0.0016353687767318118 0.0004300468016370242 9.233111992620802e-05 1.666039667282625e-05 2.8569502988594376e-06 6.25040854278296e-07 2.2190842777278727e-07 1.1630894439108513e-07 7.797968291646572e-08 6.267435406319297e-08 5.870816753114714e-08 6.393306867366964e-08 8.149480740110068e-08 1.2477102674104754e-07 2.2870670965180965e-07 4.890706969628275e-07 1.1726314964192187e-06 5.32915031010274e-12 3.3171585287089375e-06 4.09479040765114e-09 3.37854296723798e-08 3.3131250303908543e-07 2.4626306300594353e-06 1.4297543905223165e-05 6.753723239325355e-05 0.00026754607955337996 0.0009077136094943932 0.0026716611583184036 0.006863065737093837 0.015402249233349135 0.03013694005103611 0.05124411966922481 0.07545875330853603 0.09591571961882889 0.10492307969211381 0.09848199940281332 0.0790569460758957 0.054073831142556136 0.03137215772729078 0.01535715020913528 0.006305919883105812 0.0021604696920891208 0.0006167147188697498 0.00014843143003627146 3.167308783852387e-05 6.869832828415722e-06 1.8900918394688256e-06 7.420136389976273e-07 3.900757421099576e-07 2.54242845773193e-07 1.976841447185489e-07 1.7969761596520157e-07 1.8839073428359872e-07 2.264318004191847e-07 3.0998437040416796e-07 4.797564616882295e-07 8.266601966703005e-07 1.5511378230328163e-06 5.387284403108373e-12 3.353766032204774e-06 2.499580100206844e-09 2.6027443612212707e-08 2.6739945822598926e-07 2.0319308286910357e-06 1.2000513879249144e-05 5.7468936218738364e-05 0.0002301957697279214 0.0007885983410392318 0.002344200892169429 0.006092168111455762 0.01386767786982979 0.027600642375152248 0.04786466517792529 0.07205277326635123 0.09382684183638132 0.10537652878576564 0.10179949741359225 0.08437476483495523 0.05983643203127411 0.03620117468767072 0.018626958680742902 0.008130325124718415 0.003009598464967335 0.0009510532631738131 0.000262830898361557 6.764936322506727e-05 1.834365179739219e-05 6.058838783275703e-06 2.5833437228945632e-06 1.3746093419960365e-06 8.760863044228973e-07 6.530504041147809e-07 5.60300633105219e-07 5.46167578507367e-07 5.974659936118878e-07 7.257100207894216e-07 9.672458111004508e-07 1.3955674009091386e-06 2.139358525264584e-06 5.462959051085813e-12 3.401405923667752e-06 1.6777217096952595e-09 1.9161922690345006e-08 2.0459444759274462e-07 1.5969634841400582e-06 9.650021509205416e-06 4.711410786307571e-05 0.00019177213229786648 0.0006660648397492587 0.0020060809535522744 0.0052877033509955065 0.012235907143944832 0.02482811248016904 0.0440236145931097 0.06793673088604633 0.090910325985775 0.10517976624408215 0.10497238271183022 0.09021375784510902 0.06666613374267502 0.042316253760649125 0.023062566863565594 0.010806187235483882 0.004376551949500223 0.0015543764076249406 0.0005003738776694898 0.00015571190599761095 5.155695974389083e-05 1.9833418831885147e-05 9.136496204832445e-06 4.963169083598058e-06 3.113989948675304e-06 2.2253699392737266e-06 1.7920050212013171e-06 1.6085608633717496e-06 1.5917371534348895e-06 1.7155674701960698e-06 1.9879433626628164e-06 2.4385716105043196e-06 3.0984993677861677e-06 5.555944993939474e-12 3.459944582836838e-06 1.175027258009497e-09 1.3311043166945755e-08 1.477691403163392e-07 1.1915926573188862e-06 7.413425148343621e-06 3.7126301176366436e-05 0.00015441466410891328 0.0005462816919272736 0.0016729908847046468 0.004484568577171815 0.010572510717577392 0.021915972690265375 0.03981834480481252 0.06314232658690747 0.08705631562337914 0.10405372615149217 0.10761896421682814 0.09623136717614521 0.07439765237545645 0.049783286852599286 0.028908911914780913 0.014647632845636837 0.0065463166734297225 0.0026347372821341596 0.0009910514358789926 0.00036900919464797726 0.00014560036562757085 6.410062784299831e-05 3.2010213437277875e-05 1.801472820752538e-05 1.1309331186716157e-05 7.858008588175027e-06 6.001635823130666e-06 4.99978719517446e-06 4.500473339902091e-06 4.327050957166869e-06 4.3786956937717525e-06 4.569054483945846e-06 4.748960204220007e-06 5.667263919505941e-12 3.530030509901456e-06 8.470808762073454e-10 8.653507386664677e-09 1.0025783161265478e-07 8.404841936801645e-07 5.419702939241453e-06 2.802492040093412e-05 0.00011984256774643081 0.000434184008127522 0.0013578421950174316 0.003713159654687651 0.008938623726281859 0.018964983534992975 0.03537277964475298 0.057755860989668034 0.0822215199558474 0.10175897514938159 0.10932691308891974 0.10197180973495704 0.08270466124752648 0.058524659088754344 0.036342255624848906 0.019992490164047454 0.00989569988174797 0.004517618498980751 0.001973562038234739 0.0008647135933193993 0.0003979425072633505 0.00019819235384634939 0.00010779045883400987 6.382431989645351e-05 4.091919730952735e-05 2.8268907568053375e-05 2.094385313400259e-05 1.653954634035056e-05 1.380519513435735e-05 1.2030006057552441e-05 1.0743421408947234e-05 9.516705302516442e-06 7.773588166857547e-06 5.7986112110070945e-12 3.612734969528382e-06 6.37875776834198e-10 5.225926097003166e-09 6.351429821112502e-08 5.572020480377051e-07 3.7502934334293255e-06 2.0168349003679676e-05 8.929705168696869e-05 0.0003334082921333809 0.0010702598911151342 0.002997109622226325 0.00738696560728561 0.016073405259347688 0.03082877199835455 0.05191680338715685 0.07644804200443037 0.09813849870592908 0.1097086679279599 0.10690354908823663 0.09109039984457627 0.06825675402640688 0.04537786503751212 0.027118474389077798 0.014849173089457334 0.007650688116497881 0.0038366040062486778 0.0019422196332490105 0.001023271363161096 0.000570831579503083 0.0003387075538938728 0.00021332919126402697 0.0001421104631231379 9.977396781159033e-05 7.353476515536332e-05 5.657457280237582e-05 4.5044520579587864e-05 3.6594664556404334e-05 2.95765908741663e-05 2.253813016156788e-05 1.3749673029205367e-05 5.952156849052677e-12 3.709426722815907e-06 5.152126056081239e-10 2.9083213938524236e-09 3.729260675218576e-08 3.4472298550719947e-07 2.4397395518516757e-06 1.3751336791467312e-05 6.353221906883645e-05 0.00024624963710155243 0.0008165307402900171 0.002353093764396985 0.0059585332068429545 0.013327564049734508 0.026332331411748282 0.04580673954395636 0.06986804051315341 0.09315366052394648 0.10846611112287416 0.1104894169116302 0.09892410517861695 0.07846196729169627 0.05577716634549839 0.03611953170545398 0.021771147601787166 0.01254587429945215 0.00712029493506821 0.004091250993894667 0.0024275832610719476 0.0015017482067059909 0.0009701332240201376 0.0006530977219560431 0.00045684078259323373 0.00033103005576471046 0.0002475557586489871 0.0001900162580867611 0.00014834191427521797 0.00011590601804829751 8.78063830374515e-05 5.96916921547965e-05 2.6687204244228488e-05 6.1306254555721195e-12 3.8218255207139275e-06 4.5397355809640137e-10 1.4780371316508422e-09 2.0115079343144664e-08 1.9729295156162752e-07 1.4796481752127183e-06 8.81360632854111e-06 4.28548288983303e-05 0.00017388877749285655 0.000600143403559949 0.001791012880054698 0.004680752324591336 0.010795450452583427 0.02201796353474647 0.039627258150986444 0.06269089881655324 0.08689846036187471 0.10544785686862505 0.11227824152437532 0.10552972852312244 0.08842558973149803 0.06700120788016697 0.0467805994285072 0.030803885520250093 0.01963401510971509 0.01242658876771535 0.007971819546860518 0.0052487270086115445 0.0035632574780123036 0.0024931398671905304 0.0017934203825002587 0.0013226225888599524 0.000997119305773314 0.0007656887602384339 0.0005956450796696835 0.0004650564089815762 0.0003582199216281356 0.0002626428777033326 0.00016681096669837758 5.7969382258576904e-05 6.337343425912893e-12 3.952030189999291e-06 4.3356310235334255e-10 6.789405587773676e-10 9.863320128820327e-09 1.033650606800779e-07 8.279881761497644e-07 5.2576147472182834e-06 2.7155219684800482e-05 0.0001164465366843975 0.0004221194727509111 0.0013148424090972618 0.0035685297777527463 0.008523218647886893 0.01799635333224257 0.0335763583827421 0.05517354660088674 0.07958750459204392 0.10067943297510876 0.11198931067136156 0.11030675483024222 0.0973432823917204 0.07824731682979703 0.05851111391263385 0.0417049652152117 0.02905086640086731 0.020211794308340438 0.014258784416951695 0.010275293572543592 0.007573356923798861 0.005697725717062415 0.004362674351588907 0.003389793329822254 0.0026650718427414827 0.0021126961474349152 0.001679737649656606 0.0013271780695982538 0.001024200901689573 0.0007439968092803337 0.0004602887413811806 0.0001434249388205591 6.57626382241633e-12 4.102532719188055e-06 4.38576562745864e-10 2.7869989149970725e-10 4.344412436727773e-09 4.896854479011491e-08 4.22262155859002e-07 2.884064941315016e-06 1.5979909815979222e-05 7.317905227879975e-05 0.0002815481014602186 0.0009242487476326665 0.002626270057906661 0.006535486616835661 0.014345449051425766 0.02782359812692749 0.04758186623431 0.07151743384463764 0.09435415930048864 0.10956268060260538 0.11284799289146595 0.10447769456523255 0.08858437617300109 0.07039321670245667 0.053770756973483665 0.04043970163927985 0.030507495267697814 0.023338870287124888 0.018171973399678 0.014383775485126336 0.011537573994935421 0.009346409930128839 0.007623327622410049 0.006242524364523496 0.005114687675524231 0.004171727947207116 0.003357848073283477 0.002623591765606597 0.0019213038752837572 0.0012004900261266293 0.0004023168771763558 6.85216896741426e-12 4.276350486195907e-06 4.590474262759629e-10 1.010137508992911e-10 1.6964331700248272e-09 2.0686239948272665e-08 1.934485108642488e-07 1.433823601080646e-06 8.609669072124483e-06 4.258009487745056e-05 0.00017593367851231252 0.0006157583014906904 0.001850939368265391 0.00483947760264642 0.011110421943420802 0.022496239619383695 0.040155852915604986 0.06301390311989624 0.08678642240487204 0.10515618699617532 0.11301313926988407 0.10931262590406723 0.09715020226508204 0.08135559455812871 0.06591576585327395 0.052887405616078006 0.04270440779345814 0.03496722531360871 0.029057298510783116 0.024433282232142906 0.020705864216865072 0.017618978067883012 0.0150076330197811 0.012761118451218136 0.010797978320253148 0.009050616996967888 0.007456174614140092 0.005950883919002237 0.004465512541841252 0.00292036465453224 0.0012190100153942028 7.1707701943722976e-12 4.477083908746708e-06 4.896616442544966e-10 3.1952928679959357e-11 5.792715986201373e-10 7.675424642727913e-09 7.83330183509639e-08 6.352370148829415e-07 4.175369829135974e-06 2.256106863964268e-05 0.00010139977719942661 0.00038344751226151226 0.0012349887191429603 0.0034304413342587437 0.008309230285503923 0.017675649206507608 0.03308239357874845 0.054377545647727434 0.0783387047395006 0.0990872281498163 0.11093140149313564 0.11164939789760926 0.10334201784341188 0.09041939656625587 0.07690664064982611 0.06507111192148611 0.055551561727481706 0.048088399488677845 0.042151483184134676 0.037254834423391094 0.03305188340012823 0.029324931543988995 0.025945222846787193 0.022834580566690275 0.019938329789091706 0.01720735035629416 0.014587868101221767 0.012015414681958388 0.009409804406029176 0.006671124983956626 0.003673112485703792 7.538865917474591e-12 4.709018456645431e-06 5.284042445323636e-10 8.739921237402086e-12 1.7070727826704925e-10 2.4632068662050766e-09 2.755606254518166e-08 2.4614068410020024e-07 1.7869940121259471e-06 1.0669021099377109e-05 5.2855515164297595e-05 0.00021913824483952825 0.00076768507228333 0.0022976049272954435 0.005942258240052883 0.013403678160727186 0.026487743252341774 0.04584390606961855 0.06934485814307025 0.09173770142073409 0.10693199893639953 0.11161349638822882 0.10693070325365917 0.09692179631192077 0.08566182553123591 0.07558140913314104 0.06742626705500009 0.060993579742187144 0.05577242768837844 0.05129658061505771 0.047240645222694146 0.04341401032317098 0.0397174484199415 0.0361033099577959 0.03254567135468487 0.029021143956230722 0.02549783432452677 0.021927135752653672 0.018239112087256433 0.014338996391799348 0.010101059493009936 7.96479491438558e-12 4.977410203933138e-06 5.859142413648152e-10 2.5955977172132996e-12 4.295466822706053e-11 6.741498278366588e-10 8.280394511317924e-09 8.180846597734605e-08 6.605736832095167e-07 4.400480524601443e-06 2.4334137094517655e-05 0.00011229122856023458 0.000435085873137857 0.0014271065827807018 0.00400300749944557 0.009700146445220664 0.020448522920621527 0.03756959581756583 0.06004894324148519 0.08344605976591388 0.10142374415382464 0.10957183427713313 0.1080591807111737 0.10062048409995336 0.09148189640994439 0.0832450239694491 0.07673685442834306 0.07172831633725973 0.06770711171060079 0.06420331977044029 0.0609111515171005 0.057657369514185326 0.054357852679307934 0.05097665216479616 0.047500634654947374 0.04392249875055214 0.040230298431270295 0.03640051010465852 0.03239205803639091 0.028143477367134906 0.023567717891122386 1.0336151140178652e-11 6.457166025551168e-06 2.330087582113435e-07 1.4134282877304944e-08 9.027071116974305e-10 2.2134626085347022e-10 2.26898753402186e-09 2.449987252350449e-08 2.1773897251035267e-07 1.6037401381330506e-06 9.834102247490976e-06 5.036184252202142e-05 0.00021868351711646654 0.000801226594600274 0.0024847680880205345 0.006582209251327184 0.015019852824712071 0.029647849002462163 0.05057703337646394 0.07441157889940943 0.09475229396760528 0.105990628037026 0.10713537328418107 0.10164525854447984 0.09404056715632012 0.08722832319286328 0.0820374442536967 0.07827289726256627 0.07538242935579563 0.07295074033455377 0.07070782855670699 0.06850537830226024 0.06625990448341482 0.06392486028703817 0.06147483062078814 0.05889623497070419 0.05618024514396042 0.05331843278468768 0.050297485319380913 0.047095333603980015 0.04367854565691989 2.8889936925538638e-11 1.8037050095496402e-05 2.8527973217321333e-06 4.127160672915169e-07 5.5528702480196045e-08 7.061520282616192e-09 1.425835805345356e-09 7.042159028806917e-09 6.783549256967412e-08 5.51370555531543e-07 3.7446438341422965e-06 2.1277237000116675e-05 0.00010253442714474551 0.0004159261191666252 0.0014208550019412542 0.004118625016734902 0.010274322926925582 0.02216299324460907 0.040959600670142544 0.0646317971014104 0.08705447657381427 0.10127064728816051 0.10467152986410654 0.10028235770580127 0.0931352415389107 0.0864577254077856 0.08140511943569785 0.0776763718727414 0.07492278196385647 0.07282538429549454 0.07116516889592832 0.06979877869965972 0.0686184883007298 0.06754202436499177 0.06650770641228367 0.06547151716240365 0.06440388605474755 0.06328664004274753 0.06210935308229453 0.060866199460887734 0.05955266803958638 1.1461325490328544e-10 7.151859599985426e-05 1.972163063603853e-05 4.301989989437618e-06 8.509278056349979e-07 1.5867557286246752e-07 2.8440473016973766e-08 6.706129877341246e-09 2.06572874934197e-08 1.7802437022048469e-07 1.3366294687130277e-06 8.422241527730045e-06 4.5058642023668476e-05 0.00020271677326834343 0.000765339082904419 0.002438115433628079 0.006644932571496109 0.015600438707649473 0.03134610318306574 0.053904722387123155 0.0781286483482351 0.09556805219291005 0.10117094531725385 0.09680331327911329 0.08791504753558385 0.07890267245992462 0.07066873724050625 0.06436360636851379 0.06008908933841099 0.05710005784412209 0.05507324568365774 0.05373825141517206 0.05290463152797118 0.05242677444097558 0.05219645540441773 0.05213336393165194 0.05217882162899786 0.05229238080949655 0.05244723732910008 0.05262853280064591 0.05282985778124615 3.87398969371196e-10 0.00024161552899897997 9.008675260805811e-05 2.5839102610365047e-05 6.6787720985486695e-06 1.6290979379246712e-06 3.819354908650537e-07 8.720071839982578e-08 2.4574317768333357e-08 5.763123725818329e-08 4.45295688749517e-07 3.1040050557336344e-06 1.8435054365332364e-05 9.207614789912406e-05 0.00038505846319115516 0.001352773172668043 0.004043581633580772 0.01036272611921788 0.022678205429724714 0.04253094814749321 0.06727459664008917 0.08863062385728851 0.09715725501601429 0.09173233248567358 0.07668009815695297 0.05630142147559757 0.04129554443543344 0.03340986132590849 0.02859667858855717 0.025650744474787286 0.023793868537716024 0.022649082377348587 0.02197752554858163 0.021631516744894885 0.02151200191872861 0.021550855417619766 0.02169983378881881 0.021924599602728884 0.022201170870689194 0.02251389367346401 0.022853946636942964 1.0502028908271328e-09 0.0006546809562597664 0.0003037311837126663 0.00010753641555250729 3.422518521438566e-05 1.0281298302143443e-05 2.9746226026052604e-06 8.369827549035695e-07 2.314140339332483e-07 7.68028449153233e-08 1.5292397395868947e-07 1.0610375775496565e-06 6.968716613632628e-06 3.865466380039339e-05 0.0001793123808065179 0.0006964377455203324 0.0022902222203279115 0.006424999865827633 0.015342330848914312 0.031390606931990944 0.054338924920101096 0.07824593934704142 0.09265133231192793 0.08874558889256268 0.05961829346122297 3.717928400297926e-05 2.3436706761294584e-05 2.3197534323489163e-05 2.1583514879289415e-05 2.1095196307473905e-05 2.115902008360375e-05 2.1714330189470755e-05 2.2638149633756628e-05 2.384930975657393e-05 2.527463861816816e-05 2.6839638550648703e-05 2.8469350216736604e-05 3.0083504382856966e-05 3.1599783603916665e-05 3.294063104865487e-05 3.404202269129091e-05 2.3533111423855427e-09 0.0014663334823554115 0.0008115740261708039 0.00034149697694455796 0.00012897083609871368 4.596922838876932e-05 1.5797144274242345e-05 5.289735349086918e-06 1.7361249964048276e-06 5.637204809908279e-07 2.1624249275535542e-07 3.849325119911673e-07 2.427013913682042e-06 1.4858590728622303e-05 7.649877200501967e-05 0.0003289991898632561 0.0011929135861329597 0.003671726768513832 0.009579934574219401 0.021379975660573383 0.04045140407338532 0.06398918296744842 0.08282180816199639 0.08619217239576192 0.06289114398389296 1.771729860422329e-05 1.4131542765002437e-06 1.3313820032656377e-06 1.2452220757672148e-06 1.1577392922372903e-06 1.070723969731554e-06 9.85093987619502e-07 9.011287724159327e-07 8.185956517774031e-07 7.367177199366332e-07 6.54037653822389e-07 5.681222353930364e-07 4.7491239136057896e-07 3.671523006111042e-07 2.3033103921709447e-07 3.752265715836885e-08 4.502509646769957e-09 0.0028042414883401095 0.0018013007346721983 0.0008775044547077904 0.00038321496825422793 0.00015790815943528852 6.276994524816485e-05 2.4344620323886302e-05 9.270979943364297e-06 3.4806630604849414e-06 1.2999638691373963e-06 5.65863726481809e-07 9.253631025737072e-07 5.224234160482493e-06 2.9557253850482632e-05 0.00014081249594709227 0.0005637635299714367 0.0019067117296933292 0.005440714814882256 0.013230608783652197 0.027307693754814635 0.0472246575956512 0.06758844949693231 0.07721762861091822 0.0655451396021059 0.06510664507135433 0.06393199884300726 0.06236683454538133 0.06047882932036901 0.05830846160136993 0.055891154446012836 0.05325333834446859 0.0504097482906805 0.047358166951888686 0.04407078318260459 0.040478965309327423 0.03644439322992911 0.03169286617508396 0.02563103616487967 0.016708333980428775 1.9451652384084337e-07 7.550207391868687e-09 0.004700453165333882 0.003432970115669587 0.0018978204510751865 0.0009395960997879513 0.0004388149720568966 0.00019777688022508088 8.705062947209881e-05 3.767814685452604e-05 1.6105599652384503e-05 6.81935404348987e-06 2.8856332125527446e-06 1.4033502813723933e-06 2.0930707280979268e-06 1.0368860497547183e-05 5.3841