# vtk DataFile Version 3.0
vtk output
ASCII
DATASET RECTILINEAR_GRID
DIMENSIONS 41 41 1
X_COORDINATES 41 double
0 1 2 3 4 5 6 7 8 9 10 11 12 13 14 15 16 17 18 19 20 21 22 23 24 25 26 27 28 29 30 31 32 33 34 35 36 37 38 39 40 
Y_COORDINATES 41 double
0 1 2 3 4 5 6 7 8 9 10 11 12 13 14 15 16 17 18 19 20 21 22 23 24 25 26 27 28 29 30 31 32 33 34 35 36 37 38 39 40 
Z_COORDINATES 1 double
0
POINT_DATA 1681
FIELD FieldData 1
Concentracao 1 1681 double
0.0 4.326205290301518e-33 -5.292381961174455e-31 2.8379884937148855e-29 3.3834152445346816e-24 2.7408252477106713e-20 6.569990548780229e-18 3.564950480792831e-16 8.377711947976106e-15 1.1299791331929292e-13 1.0169626611015761e-12 6.684160589905414e-12 3.4045835862466374e-11 1.4005508866436235e-10 4.798364619587654e-10 1.4017644148140476e-09 3.5590614072544264e-09 7.978700635390011e-09 1.6005383696085627e-08 2.906461305329139e-08 4.826065853960906e-08 7.392204041636952e-08 1.0525846835664263e-07 1.4027505212909847e-07 1.759988853182386e-07 2.0896142731423845e-07 2.3579838077855503e-07 2.5379112260256107e-07 2.6122754930500764e-07 2.575222334807325e-07 2.43125479872666e-07 2.1932812665610047e-07 1.8809634411076258e-07 1.520539254849923e-07 1.1438791350213997e-07 7.871282271820368e-08 4.815665567400258e-08 2.503627954270438e-08 1.0277205896648307e-08 4.34573440375656e-09 1.0493682559060027e-08 4.681360518880417e-32 5.407760939082188e-27 -6.615482685093013e-25 3.547488442528771e-23 4.229272439083596e-18 3.426034172664049e-14 8.21249436207439e-12 4.4561914007649213e-10 1.0472147680217228e-08 1.4124749611639376e-07 1.2712043376942171e-06 8.355207020806062e-06 4.255732876052491e-05 0.0001750689988641528 0.0005997960562194717 0.0017522069202819742 0.00444883031812944 0.00997338333002055 0.020006744950263628 0.03633079538122729 0.06032587143516986 0.09240261902586512 0.13157319070427165 0.1753439415759361 0.21999878264668357 0.26120199310422537 0.29474821085535047 0.3172391550719703 0.32653468335741515 0.3219030468000192 0.30390709296631235 0.2741603718041859 0.2351206167729948 0.19006755891016586 0.14298500626558847 0.09839110711057733 0.060195867749158895 0.0312953739782364 0.012846517513950129 0.005432172350430104 0.0131171134393803 7.706125511144011e-26 3.010088198704393e-20 2.840333703079667e-19 7.008914593044549e-18 6.04240848310931e-15 2.0314214719391166e-12 1.5525004555247052e-10 4.6696057755583215e-09 7.549540901975756e-08 7.796935190020103e-07 5.711055954384922e-06 3.1752146551844035e-05 0.00014044048150558186 0.0005112492099283596 0.0015721248602067763 0.004168240404777859 0.009690847780582344 0.02003928602685464 0.037309227036426265 0.0632094337630645 0.09836139984092378 0.1417441337532948 0.19053165731954214 0.24043053800906827 0.28643258892117496 0.3237704599008189 0.34878258632930254 0.35948724076589106 0.35574983978579205 0.33906613533169805 0.31206115240005305 0.27781624887918627 0.2391570602189853 0.19809271205417722 0.15593110790999645 0.11384521685375402 0.07455770514668367 0.04139901344747187 0.01819615960636566 0.009085888847459247 0.025631458015446112 5.931228594056101e-20 2.755323008921338e-14 1.9286759644624296e-13 2.2694441420506647e-12 4.4432887507686206e-11 8.778914191825443e-10 1.3375907417916539e-08 1.4890359162504575e-07 1.2331932814731672e-06 7.86479092468656e-06 3.9941028400103655e-05 0.0001662248702571158 0.0005805469453207937 0.0017352064945646184 0.004512678405444493 0.010356548980528667 0.02123364165037379 0.03931549467763636 0.06637665160840704 0.10306654837003125 0.14832605560185597 0.19920751731263267 0.25122622915941784 0.29914850394404013 0.33799452580558126 0.3639576614069693 0.37501116698976367 0.3710874633311931 0.35386543800933745 0.32627632835681325 0.29188421452444907 0.2542538739657387 0.21634816702746001 0.1798810684356405 0.14471894043585562 0.11019506205072632 0.07546727787262639 0.043998900118887976 0.020270515696203015 0.011747309717930154 0.03761285478315248 1.3712545854129153e-14 6.885432954044288e-09 2.6085995382273074e-08 9.038630263594381e-08 3.268261622077144e-07 1.227951727349555e-06 4.634999442034325e-06 1.699058114620001e-05 5.8895638230015805e-05 0.00018946292859752363 0.0005589772823712254 0.001503160084002458 0.003676981624280539 0.008189188431808164 0.016651373595510707 0.031035961100739886 0.05327763127714764 0.08466356984167563 0.12519114098933157 0.17314019417995308 0.2250671612155782 0.27627539014231334 0.3216498918415684 0.3566091008989228 0.37791370544818476 0.38414061387042375 0.37575161284766595 0.3548059701313995 0.3244489236380548 0.2883195043068194 0.250014689022174 0.21268216029602763 0.17868602402765887 0.14946523286009492 0.12419776662870964 0.0984476688766803 0.07158539449758883 0.04320723559788474 0.020519330600351906 0.013818151632392446 0.049228062171293344 3.3447442228466505e-11 1.736640956630806e-05 4.5423700161393926e-05 9.629259005267394e-05 0.00019317480199045433 0.00038043963164903217 0.0007414186103525489 0.0014285462083706729 0.0027100709990931465 0.005033849075730421 0.009099111857792457 0.01590831952519484 0.026754570092905723 0.04308907339050407 0.06624069693319318 0.09700889292177246 0.13523166787893656 0.1794761964735051 0.22699017869730706 0.2739912389311962 0.31623787751230553 0.3497508525377751 0.3714828887799602 0.379785492358541 0.37457736554356086 0.3572116227828915 0.33012232600662633 0.29635662416170216 0.25910609966324255 0.22132506759313247 0.18548429588356927 0.15344685419253523 0.12662246239768157 0.10550288169785857 0.09310186745644135 0.08262177789817222 0.06429180113491233 0.039947189314830905 0.01918890629963663 0.015641075293732237 0.06075769906665753 2.0470372094869158e-09 0.0012793961469275545 0.0012360754751879145 0.0012113954142637445 0.0011860364758782332 0.0011602047698628366 0.0011340208894505292 0.0011074915824791501 0.0010804734770314222 0.0010528114967447255 0.0010241425807837688 0.000993990908744564 0.0009617055070965523 0.0009263963884135058 0.0008871276928519433 0.0008429414216208761 0.0007931038727168792 0.0007372690147080769 0.0006756959256729894 0.000609313369671125 0.0005396928295197081 0.00046883756710935394 0.00039899169617767287 0.0003323593470590354 0.00027082532977370485 0.00021578683161192015 0.00016809641172955977 0.00012802662045661634 9.53663751736288e-05 6.952014488044873e-05 4.967935169690007e-05 3.484971321063012e-05 2.4270573936893843e-05 1.6248748252195434e-05 1.4360053409127208e-05 0.07313049864477371 0.05715798100861706 0.03427457685658767 0.016636794186418082 0.017798365424235255 0.07258645006566035 3.104101260603478e-11 1.940006794936146e-05 6.183220234976967e-06 5.666059412006672e-06 5.1780655163037e-06 4.707904462506511e-06 4.256662169797827e-06 3.8265863104338e-06 3.419353827876631e-06 3.0359622762053934e-06 2.6768003112718907e-06 2.3420427525656226e-06 2.031699249865803e-06 1.7456937170739306e-06 1.4840810749819838e-06 1.2469098623381236e-06 1.0341058229370898e-06 8.455116561439668e-07 6.807725563322983e-07 5.39210205632162e-07 4.1981808956851116e-07 3.2134023993310146e-07 2.424424829912329e-07 1.8196316586396925e-07 1.389443568769652e-07 1.1235529463304947e-07 1.0034097376886728e-07 9.94948296115586e-08 1.0508967694281419e-07 1.1267187749353441e-07 1.201400708656142e-07 1.2862686512646095e-07 1.4153681235719595e-07 1.6237208506375615e-07 3.9299816509541503e-07 0.06181028976004515 0.046563928686607574 0.026774418114825133 0.013428220802842566 0.021256740302231843 0.0852291693998664 8.823745062456856e-12 5.4912019480334814e-06 1.566051543576844e-08 1.3254346893527205e-08 1.1276738082395572e-08 9.511647985549982e-09 7.949224591576877e-09 6.582544666107883e-09 5.400538645757046e-09 4.388941663649303e-09 3.5337885417061094e-09 2.8391099096756368e-09 2.4594162377871806e-09 3.619518472354484e-09 1.4162345237985676e-08 7.751327871716563e-08 4.0303063735241167e-07 1.8681589462908522e-06 7.654218102831753e-06 2.7657123644332508e-05 8.792772633365446e-05 0.0002451688389166473 0.0005969473029297435 0.0012621641491999437 0.0023016045742970514 0.003591340522830768 0.004757983094875109 0.005333632723173961 0.005137283845689458 0.00459994019628868 0.004705347532503816 0.006603040180152808 0.0112490573778618 0.019143489893414096 0.02990895924070168 0.0460081289856686 0.0337957215931162 0.01951334399260592 0.012835439731236407 0.029050122483944944 0.09927057397420166 8.744380330982508e-12 5.4418189078655646e-06 8.820447461237752e-10 6.019445994942267e-10 4.981885555157557e-10 4.1083645207384696e-10 3.3700509451798973e-10 2.747571427616229e-10 2.224910653011625e-10 1.7894390997183212e-10 1.4446123306625238e-10 1.3338443848094514e-10 2.7631358554055415e-10 1.5507302167563587e-09 1.031038948963425e-08 6.263243729369598e-08 3.3748797593596405e-07 1.6090363209302262e-06 6.785279343501898e-06 2.528713418087849e-05 8.314563382742611e-05 0.00024058827963262356 0.0006104886483115895 0.0013523495685624277 0.0026010900598613645 0.00431757877042316 0.006149197928732112 0.007490563355230057 0.007852184934199414 0.007321271391545875 0.0066813733912002545 0.007043291903521486 0.00932716717039119 0.013880640318153588 0.020533829358220748 0.026168837330745126 0.02311353904575585 0.016299848536903434 0.018153875209119777 0.042860536874017086 0.11532366923916967 8.750733339384171e-12 5.445996820042822e-06 2.0341655362673242e-10 4.062419336771703e-11 3.28859106698514e-11 2.6677037503356277e-11 2.162050532108066e-11 1.7478849897418918e-11 1.4081997218444582e-11 1.137840407598184e-11 1.0252690978408046e-11 2.0632534703850636e-11 1.3024389813611285e-10 1.0100717268020342e-09 7.143342648164993e-09 4.4749887304246e-08 2.480693374751807e-07 1.2178655377776347e-06 5.2969268426218855e-06 2.0402224983823657e-05 6.95119036950664e-05 0.00020909312492999846 0.0005537793628030851 0.0012868686072545672 0.0026129360011368807 0.004614929813163772 0.007061061942836432 0.009340791020896726 0.010724229233185443 0.010873557202481786 0.010187615607849242 0.009621167841335498 0.01013982036250016 0.012249041486490805 0.015724373765293644 0.019158905637546665 0.019391883660722194 0.020157667602826435 0.03022882753407721 0.062356662910281906 0.13374768523868122 8.769957420429069e-12 5.458344291307937e-06 1.5743746116698316e-10 3.306744108123487e-12 2.6275179500824435e-12 2.105937920475332e-12 1.6944570106219617e-12 1.3655362750642557e-12 1.1032400235184117e-12 9.39396638583526e-13 1.4148495465830947e-12 8.253340139965939e-12 7.320831968078001e-11 6.039572486124791e-10 4.409470870525005e-09 2.8450454084357066e-08 1.6251157384054005e-07 8.229334286339163e-07 3.696986642826389e-06 1.473514315137507e-05 5.207429872126366e-05 0.00016296927489074318 0.00045079032952326416 0.0010993836289922064 0.002356957319348612 0.004428547507069656 0.007274537228900197 0.010441251625354465 0.013145786373170938 0.014701159251640441 0.015008457235967377 0.01467050319392234 0.014614637697825934 0.015590156547417511 0.017860384840069913 0.021068536666254082 0.024699512030977044 0.03176976604273221 0.04899338188236518 0.08623033701387747 0.15413052129160076 8.797640726173485e-12 5.476114874120482e-06 1.5435071208435917e-10 3.0301328209466724e-13 2.3574097958031016e-13 1.8737377406103201e-13 1.5027493851382497e-13 1.2129694856031408e-13 9.980738458280722e-14 1.0617805737028537e-13 4.115084015622711e-13 3.938859284091078e-12 3.796415581692397e-11 3.244549671697305e-10 2.4442037974208213e-09 1.6269092015009968e-08 9.590712225950513e-08 5.015535581521359e-07 2.3293277482363833e-06 9.611830897985207e-06 3.5238646651304725e-05 0.00011471447173900154 0.0003312285629017498 0.0008470036287224337 0.0019147565583068791 0.003819917378298654 0.006718038496862435 0.010423062652788999 0.014328345043056257 0.017638827407735074 0.019843145409892814 0.021061268135589336 0.021973331060230722 0.023442852046967347 0.026183643336300518 0.03068063756198669 0.037683574812629114 0.04988469236950167 0.07238233399760169 0.11210511016745228 0.17440358232978892 8.833685476775342e-12 5.499254843135013e-06 1.5498103199548695e-10 3.174209399413968e-14 2.2891487793483278e-14 1.8102076939405364e-14 1.4522433825728507e-14 1.1805787690271875e-14 1.03266392096264e-14 1.9252019972637125e-14 1.589354286205701e-13 1.770669587316889e-12 1.7819662511343795e-11 1.575993272163467e-10 1.227318385762469e-09 8.442730535129922e-09 5.1433432792262474e-08 2.7802343697281254e-07 1.3353844724224036e-06 5.704557857051298e-06 2.1684227529635928e-05 7.335001439470947e-05 0.000220733437157485 0.0005905902206615514 0.0014038822621888036 0.0029630849259137475 0.005553493776026039 0.009258117640088092 0.01379185309684726 0.018533746633009524 0.02283357088543556 0.026413747560497743 0.029559459634999216 0.03299022141390311 0.03760344825451868 0.04436438584895205 0.054557282570925895 0.07056601284176556 0.09609027395630852 0.13544411760469047 0.19012475479540053 8.878218918738061e-12 5.527846464508358e-06 1.5616731154238462e-10 5.277680407458822e-15 2.3542989447473245e-15 1.8578024342215606e-15 1.495901764347206e-15 1.2353431634066541e-15 1.2755432992426105e-15 5.179382935034207e-15 6.105936129921313e-14 7.262640192658296e-13 7.60007885360158e-12 6.971049412744661e-11 5.625098998011274e-10 4.006517408832826e-09 2.52574495619732e-08 1.4123458049220933e-07 7.017166697115395e-07 3.101997672271784e-06 1.2212977699906597e-05 4.2856121829670014e-05 0.00013409869021477816 0.00037426371915335525 0.0009318980626191566 0.0020710155941869846 0.004112244160962101 0.007312783733052769 0.01170172163821934 0.016990878643174473 0.02268510138251529 0.028373948777176562 0.034014008038789685 0.04001671996278845 0.04715376679635163 0.05645106679853357 0.06924850682778229 0.08746878322311685 0.11357633941954658 0.14977808280274893 0.195062359697918 8.93156499759774e-12 5.562099630425895e-06 1.5763153850133266e-10 2.5705547318582903e-15 2.528343465028152e-16 1.9962461699523015e-16 1.6186918703981102e-16 1.3793689765541203e-16 1.9993492695737865e-16 1.5870588095634083e-15 2.1734263670514934e-14 2.715246020446227e-13 2.961066698635108e-12 2.8254801284374618e-11 2.368730978907027e-10 1.7506386168710313e-09 1.1438197897758347e-08 6.622448546219623e-08 3.404385929422672e-07 1.5565666527306491e-06 6.33956641660342e-06 2.3030272174762137e-05 7.471603743407824e-05 0.0002167190456683619 0.0005626563826305277 0.001309309708783587 0.0027360221525121638 0.005149317296691257 0.008769911757007726 0.013617467415923987 0.019491083625598208 0.02610106758490715 0.0332894813359543 0.041200362986713125 0.05032017810824345 0.06143282203173459 0.07558958722480066 0.0941158538149908 0.11840226699063713 0.14912317772923028 0.18396515628213905 8.994104385410079e-12 5.6022599753034105e-06 1.5935881452348048e-10 2.3090854930539017e-15 2.807507417560514e-17 2.2223855038523594e-17 1.821288480306099e-17 1.6453216161521698e-17 3.9061070885062423e-17 4.753779292809148e-16 7.074137716522254e-15 9.278659451547029e-14 1.0585565364695732e-12 1.0547791220687987e-11 9.217353769412812e-11 7.087551187081687e-10 4.809153098857526e-09 2.8866357939472293e-08 1.5360687459417556e-07 7.261391285408892e-07 3.0554221694993508e-06 1.1465822800709848e-05 3.8446614279107734e-05 0.00011542128405810907 0.0003108677515271428 0.0007528636909799144 0.001643910502219419 0.0032477376794447553 0.005833187898319034 0.009589393420729913 0.014563629338369858 0.0206800928848944 0.027847684634040804 0.03609560244514843 0.04565854040525289 0.05698653851823364 0.07070266797282397 0.08751663995205448 0.10796627699922576 0.1317781256578662 0.156319963412661 9.066269922665582e-12 5.648606770816593e-06 1.6135992973193583e-10 2.3147488680915394e-15 3.2128618156375205e-18 2.5422759801667477e-18 2.1140670612120653e-18 2.1033793479862458e-18 8.515898058373119e-18 1.3213076734125708e-16 2.100538221754156e-15 2.904061150990468e-14 3.483316153114843e-13 3.641312330959773e-12 3.3303393308815045e-11 2.6734742623940707e-10 1.8889985841980085e-09 1.1776687735970275e-08 6.493173494005616e-08 3.173475921079555e-07 1.3781064077314416e-06 5.330597425152818e-06 1.841405798957707e-05 5.696730514148775e-05 0.00015830428203266486 0.0003964137996550206 0.0008977173103378002 0.0018460875020358857 0.0034646108671464396 0.005971539111420483 0.009528568669326509 0.01421567940865951 0.02005640809576715 0.027081825255755018 0.03539222197739017 0.04517983417991305 0.056699488941762306 0.0701765111789499 0.08559676240383285 0.10226286296583639 0.1178874712511701 9.148482734327647e-12 5.701411133010326e-06 1.636516876967167e-10 2.3551829432446764e-15 3.9212039269971945e-19 2.9679815894240087e-19 2.51444198674235e-19 2.8662904995048496e-19 1.859538720625066e-18 3.3486104001144175e-17 5.681393005146984e-16 8.329139245023335e-15 1.0568049042055553e-13 1.1655476331677032e-12 1.1214323399473728e-11 9.440467292596198e-11 6.971305677541378e-10 4.52655519736961e-09 2.5903589544326334e-08 1.3096575236750828e-07 5.865644148748138e-07 2.3341507451335847e-06 8.279792513046375e-06 2.6276929912084354e-05 7.490555144983714e-05 0.00019261269672921465 0.00044880910329580983 0.0009523000540619407 0.001849966515884229 0.003310579512743736 0.005496757026399714 0.008538471995221184 0.012524161429282069 0.017514043166357 0.02356261378279205 0.03072782049987416 0.039049969999771374 0.04848567348575788 0.05877325216395922 0.0691845123805193 0.07808230866369972 9.241236482349055e-12 5.760992089549555e-06 1.662510604876271e-10 2.4051185360499386e-15 6.656556726808607e-20 3.514847590407991e-20 3.0444509179538113e-20 4.070100963752019e-20 3.8161523587077234e-19 7.671498607918196e-18 1.395658880085854e-16 2.1856905524826767e-15 2.954858407638948e-14 3.4622992341341e-13 3.5270616060705556e-12 3.1316469149793936e-11 2.428891987114777e-10 1.6490341822920654e-09 9.821640462659783e-09 5.144405169268436e-08 2.3763862163909716e-07 9.713920714065132e-07 3.5274893638248074e-06 1.1431208250484804e-05 3.32242357740683e-05 8.708093943125128e-05 0.0002070108132926504 0.00044899921954859204 0.0008939842722218697 0.001644385081453537 0.002813116834992727 0.004508315394817452 0.0068201556296338655 0.009814656271982967 0.013532515766527088 0.017984200301649128 0.02313228166897653 0.02885107193154173 0.034857517170005695 0.040599845046165574 0.04509004986401868 9.345063734991256e-12 5.827693538470728e-06 1.691777829521528e-10 2.4621158449606944e-15 2.907552295049813e-20 4.1987005570165954e-21 3.726660833219831e-21 5.805861993691391e-21 7.115710654670577e-20 1.575903251225033e-18 3.096906504156901e-17 5.22533499140758e-16 7.592452651482457e-15 9.531712509584216e-14 1.0363842405423441e-12 9.777801227573608e-12 8.017595437403689e-11 5.723017895192734e-10 3.5626614566650916e-09 1.938468755999312e-08 9.244915248681493e-08 3.878684968099872e-07 1.437930810093034e-06 4.735886103655568e-06 1.394340868760737e-05 3.69511536880485e-05 8.878232487309263e-05 0.00019483642116846503 0.0003933627260027015 0.0007357365658828361 0.0012834299233984519 0.002101709363859147 0.003251621517434669 0.00478205300133398 0.0067222203749519455 0.00907261867689747 0.01179102242725324 0.014770611030433775 0.017810558938979152 0.020578622071601178 0.02256978145156165 9.460403219271585e-12 5.901796653590527e-06 1.7245049202011203e-10 2.52633878704614e-15 2.5363043228182702e-20 5.032917240805728e-22 4.5789022696025415e-22 8.011437194829541e-22 1.181352988173646e-20 2.875565402119691e-19 6.155698255969852e-18 1.129768905385652e-16 1.782061737496481e-15 2.4212345651501572e-14 2.8378336370033484e-13 2.8718579794028052e-12 2.5112529602251128e-11 1.8990250899257345e-10 1.2432378162083806e-09 7.058371610414913e-09 3.4839898357220244e-08 1.5005227516927884e-07 5.666395365071087e-07 1.8878714400794798e-06 5.591221766301457e-06 1.4847018709970092e-05 3.567581005928882e-05 7.830099821539576e-05 0.0001583788699244156 0.0002976436057472498 0.000523456267924085 0.000866877151700657 0.0013592324982780258 0.0020275123800666647 0.002888651313838286 0.003942602268511494 0.0051635530111348174 0.006489461807574845 0.007811337617402997 0.008965923976853843 0.00973483469161581 9.587693372816077e-12 5.9835852024308646e-06 1.760876258471452e-10 2.5982604428722044e-15 2.5722966567869524e-20 6.034280750312303e-23 5.609425040427714e-23 1.0400730214904891e-22 1.7209934144239036e-21 4.6095429672788874e-20 1.0840168845107072e-18 2.1857746346842273e-17 3.783920627242746e-16 5.62908661475549e-15 7.196680504429866e-14 7.904446458114098e-13 7.454367468996088e-12 6.033239237763611e-11 4.190497115257271e-10 2.4995447288172355e-09 1.2826354418985645e-08 5.680456015797646e-08 2.1819781702907804e-07 7.320221260545614e-07 2.1641846957952124e-06 5.699030595980787e-06 1.3526630367664164e-05 2.9289635756560935e-05 5.85283192201555e-05 0.00010901950911720921 0.00019085094625242646 0.00031600226575006997 0.0004972283528486837 0.0007461408941414489 0.0010704355143195678 0.0014703018307950335 0.0019341469106435665 0.002434182418893627 0.002923270552781917 0.0033354115292136776 0.0035913177671447537 9.727264824082264e-12 6.073271201194547e-06 1.801061510639928e-10 2.678367373542178e-15 2.666359111474441e-20 7.348678111832663e-24 6.814093485510715e-24 1.2558434701908698e-23 2.1790689115566423e-22 6.422884740524415e-21 1.6704426437310568e-19 3.733930812290233e-18 7.171845028519752e-17 1.1827779622345237e-15 1.6720580266646705e-14 2.021728581260661e-13 2.0856035144639274e-12 1.8313215754560475e-11 1.3661073786959116e-10 8.648653358149012e-10 4.648161951140347e-09 2.1251767537133333e-08 8.30328015917609e-08 2.792881272742049e-07 8.171987211577605e-07 2.108032520598925e-06 4.868102530453026e-06 1.0228339370069635e-05 1.985346078889566e-05 3.606789563511621e-05 6.194113907840188e-05 0.00010124279556207994 0.00015815447753059873 0.0002366510828787233 0.00033948017749074863 0.00046678090148398243 0.0006144445458767715 0.0007725516237666347 0.0009246710405711378 0.001048892849379866 0.0011213005077323687 9.879298012930047e-12 6.170970068292308e-06 1.8452091150644693e-10 2.7915693030929696e-15 2.9803774191622374e-19 2.9327838519844693e-21 3.095056397891888e-23 1.7014907461845065e-24 2.3935579126368298e-23 7.728542599169789e-22 2.229169307086737e-20 5.555760340487813e-19 1.1943131420093429e-17 2.2088797427050857e-16 3.5016615175065538e-15 4.736199933820865e-14 5.437384905898944e-13 5.271205527502749e-12 4.294307693038109e-11 2.9284645240942005e-10 1.667751129659975e-09 7.930753247852849e-09 3.158823298419576e-08 1.0612955397287103e-07 3.043806422438952e-07 7.575037334822842e-07 1.6699151737699417e-06 3.332974216095343e-06 6.152893932370451e-06 1.0691364285471456e-05 1.7708233929715084e-05 2.8167763724014958e-05 4.3177576151022416e-05 6.382351511743836e-05 9.087960623685269e-05 0.00012439636104725137 0.0001632006602963403 0.00020446262505234867 0.00024357187175799006 0.0002746266902119506 0.0002917285915610607 1.0067857852815084e-11 6.29171660285464e-06 4.1424986383986907e-10 3.241556278018669e-12 4.4702159874254446e-14 5.814726098273651e-16 6.96561512428332e-18 7.433100136359782e-20 6.736464432747622e-22 8.519397288204275e-23 2.5678572689062692e-21 7.137766094055362e-20 1.72332374739492e-18 3.600676385312113e-17 6.47482333073163e-16 9.949988781247246e-15 1.2956633085712208e-13 1.4166446452064532e-12 1.2884558694148985e-11 9.664812606262773e-11 5.937725327479051e-10 2.9750470668406035e-09 1.2153279291386442e-08 4.0700678235072235e-08 1.1311164341609921e-07 2.6647071673864236e-07 5.463166770795992e-07 1.0072158060946551e-06 1.72007276588893e-06 2.7905696715508444e-06 4.369870335869548e-06 6.658546800950792e-06 9.892212615966784e-06 1.4306707091668832e-05 2.00724382827945e-05 2.7199510571519283e-05 3.5422473220022406e-05 4.410151882267357e-05 5.221228918321788e-05 5.849082965421539e-05 6.177571642881536e-05 8.050378305410297e-10 0.0005028252171564181 1.4864138053240138e-05 3.213404503719164e-07 5.919883139546907e-09 9.632866882663923e-11 1.3854209538549528e-12 1.7255598886817873e-14 1.7825811190790263e-16 1.4128585379944136e-18 7.833187484316117e-21 8.008126289785014e-21 2.1448778444117368e-19 5.061532476427844e-18 1.0367546627249211e-16 1.82819244703989e-15 2.7450733547788493e-14 3.46234726319923e-13 3.6117438407835115e-12 3.0662788998814665e-11 2.0874694200789462e-10 1.1261037683163354e-09 4.780530041799647e-09 1.5971123173709494e-08 4.252145460766378e-08 9.216138195693331e-08 1.6983411155000262e-07 2.772807345622215e-07 4.2225270738549596e-07 6.202703557305382e-07 8.975634124922019e-07 1.2880545737386117e-06 1.8314688981924433e-06 2.5673753941754337e-06 3.524253196290155e-06 4.7029329682058735e-06 6.056835994472228e-06 7.4748611722686e-06 8.782024679357186e-06 9.770705915519733e-06 1.0264221372301565e-05 3.2635749355906714e-09 0.0020375055851510203 0.00011908659823692852 5.3667503223306715e-06 2.1805597747920256e-07 8.330618249369022e-09 3.0335843725235566e-10 1.0556787412846e-11 3.4972496400983386e-13 1.0927007671428602e-14 3.1694565728603015e-16 8.323373462244669e-18 2.1592574513614194e-19 6.777059537067347e-19 1.5214798329441627e-17 2.9636076007396735e-16 5.022348140689207e-15 7.421760354215084e-14 9.117743139587398e-13 9.073189057885674e-12 7.110889820276814e-11 4.2787397167109017e-10 1.9364854907530853e-09 6.52290944425299e-09 1.634632451645038e-08 3.169722272526239e-08 4.901484993533107e-08 6.70283551075717e-08 8.597214678595382e-08 1.1025733551232562e-07 1.4376248446118265e-07 1.9104106485998447e-07 2.569191413052759e-07 3.461370855206512e-07 4.620133683491979e-07 6.044114382423236e-07 7.672930502268654e-07 9.365853766022426e-07 1.0906383668433365e-06 1.204599399121502e-06 1.259074054246241e-06 7.448923130633264e-09 0.004648343563646597 0.0004151006523837099 2.8582968279049295e-05 1.7852790960731013e-06 1.0607779134365089e-07 6.111537470239861e-09 3.44248085851433e-10 1.9011235004529644e-11 1.028605888468109e-12 5.431738260256103e-14 2.779680239369579e-15 1.363037977080108e-16 6.3820571363722855e-18 2.4766413614723906e-18 4.773723982530992e-17 8.98967694774359e-16 1.48022805493827e-14 2.0320745983705658e-13 2.3757267542572488e-12 2.2462410604726973e-11 1.588552767075687e-10 8.054231636883516e-10 2.810369177275934e-09 6.665458412228679e-09 1.0479557548141663e-08 1.2900163905030116e-08 1.2677661860835525e-08 1.2875757656093172e-08 1.381402041435932e-08 1.5851852513813e-08 1.921289141831096e-08 2.420176079370564e-08 3.1128311319083197e-08 4.020934199389582e-08 5.139468607284904e-08 6.415598890865737e-08 7.733207476958257e-08 8.917164391515552e-08 9.774824264928734e-08 1.0168355166120044e-07 1.2793803754898967e-08 0.007979920101391919 0.0009725229241167344 9.100245587410701e-05 7.721246707355877e-06 6.2499445871656e-07 4.933118276653631e-08 3.83903236451241e-09 2.9628269531235435e-10 2.2738467275931866e-11 1.7361919856410314e-12 1.316901576197282e-13 9.887022036727713e-15 7.301119009859565e-16 5.283178357789176e-17 1.11790526831203e-17 1.5898464443213495e-16 2.925900807395693e-15 4.5132262289373184e-14 5.952998735337638e-13 6.3809301248197615e-12 5.4055818316784533e-11 3.286170914002794e-10 1.294482224518718e-09 2.869735536920386e-09 3.7182026318340424e-09 2.151080038623251e-09 1.3976540866087264e-09 1.0324945150694135e-09 8.989344441593381e-10 8.900142137891773e-10 9.738850124410097e-10 1.1418759964225205e-09 1.3966793277980652e-09 1.741397059987391e-09 2.1706184167588413e-09 2.660949891078718e-09 3.1646319719366093e-09 3.612043879965857e-09 3.929619153024556e-09 4.069683018059649e-09 1.8661529281002142e-08 0.011634271400470691 0.0018090628629192737 0.00021511094310059243 2.3157149635342456e-05 2.3794150196493786e-06 2.3894921501964456e-07 2.375321561425031e-08 2.3551096045847094e-09 2.339692542867284e-10 2.335460523525474e-11 2.34496598841252e-12 2.3679335826843506e-13 2.4008501315114532e-14 2.4361829046893055e-15 2.4721623876480947e-16 5.1816720308839817e-17 5.673160065597539e-16 9.833326050285438e-15 1.4702412839383718e-13 1.7993197081986274e-12 1.7510673705365763e-11 1.252434443272522e-10 5.710877522796083e-10 1.4706553571356902e-09 1.431125381040189e-13 8.397016204524308e-14 7.406344189754138e-14 6.433391142340276e-14 6.461477753622178e-14 7.215072832566417e-14 8.77885048367448e-14 1.1308727270714588e-13 1.5034811997553266e-13 2.0165106880067616e-13 2.6749503197845797e-13 3.4501864668495036e-13 4.264586101052536e-13 4.994140202486471e-13 5.504673674971307e-13 5.712955083257587e-13 2.4616717249351108e-08 0.015339723876929334 0.0029038586018755256 0.0004190315109100212 5.466317618486437e-05 6.805795094066153e-06 8.291138395680224e-07 1.0021469739253791e-07 1.2122696862230425e-08 1.4762094210250248e-09 1.8168380651774418e-10 2.2661971247301977e-11 2.8696140146008253e-12 3.691974882709846e-13 4.825464876067161e-14 6.400961886743765e-15 8.644013855357404e-16 2.2132121956160975e-16 2.0770902603416138e-15 3.50213974575028e-14 4.896568816052313e-13 5.505438152641116e-12 4.5497922283842446e-11 2.529582182656469e-10 7.747369222476055e-10 8.83373747208441e-15 1.5973424313661456e-16 8.437420721471401e-17 4.357044209849009e-17 2.332824366651166e-17 1.43306532225823e-17 1.1509316818158373e-17 1.2449348974594753e-17 1.6235400232892505e-17 2.2670295726497645e-17 3.170468903204701e-17 4.291694095398792e-17 5.5098904291522626e-17 6.619745362756859e-17 7.393535913129335e-17 7.692016476859835e-17 3.0409824613191585e-08 0.018941058032930207 0.004211948771879489 0.0007123758041452715 0.00010880754474071967 1.5860523530097875e-05 2.264037224683867e-06 3.211591673111518e-07 4.570149961001867e-08 6.567531102620088e-09 9.577914939450682e-10 1.4227584106774932e-10 2.158827363474934e-11 3.3532919666263982e-12 5.340901538373358e-13 8.73328421860779e-14 1.4676256232060903e-14 2.555030531201095e-15 8.581074255969607e-16 7.921634731643544e-15 1.250399171459587e-13 1.6051914105543356e-12 1.5470890419306127e-11 9.439005261581591e-11 4.2160403039400457e-10 1.9244773049980146e-10 1.0942110926821459e-10 5.728046427404507e-11 2.856953999901329e-11 1.3758698285044663e-11 6.43897413230415e-12 2.933129671490028e-12 1.2977646119808345e-12 5.542941057236952e-13 2.2593385942717704e-13 8.618348600277496e-14 2.9769221274189014e-14 8.78859559783187e-15 1.9808601361733087e-15 2.562140619599147e-16 1.0390902941375462e-20 3.588785330604052e-08 0.02234354849146282 0.00567155