# vtk DataFile Version 3.0
vtk output
ASCII
DATASET RECTILINEAR_GRID
DIMENSIONS 41 41 1
X_COORDINATES 41 double
0 1 2 3 4 5 6 7 8 9 10 11 12 13 14 15 16 17 18 19 20 21 22 23 24 25 26 27 28 29 30 31 32 33 34 35 36 37 38 39 40 
Y_COORDINATES 41 double
0 1 2 3 4 5 6 7 8 9 10 11 12 13 14 15 16 17 18 19 20 21 22 23 24 25 26 27 28 29 30 31 32 33 34 35 36 37 38 39 40 
Z_COORDINATES 1 double
0
POINT_DATA 1681
FIELD FieldData 1
Concentracao 1 1681 double
0.0 5.390475827290064e-40 2.9179737248505327e-39 1.1787387346238857e-38 3.7610101686556206e-38 1.0050517525498752e-37 2.3346912888594198e-37 4.850689194516388e-37 9.215485402678869e-37 1.6285170157130838e-36 2.7126584925260717e-36 4.303308526634329e-36 6.55427047910806e-36 9.645347163295292e-36 1.3784508698434868e-35 1.9208970529511392e-35 2.618763127903748e-35 3.5022288382222125e-35 4.6048635828644814e-35 5.963845294698e-35 7.619951173955065e-35 9.617564503209792e-35 1.2004477707444018e-34 1.4831428048529095e-34 1.8150923931334363e-34 2.2014822063844154e-34 2.646987648565179e-34 3.154837844660475e-34 3.7251112731560195e-34 4.351671983803206e-34 5.017005354055206e-34 5.684711931083498e-34 6.291530947569511e-34 6.7462582263355e-34 6.942684441265417e-34 6.792553628892104e-34 6.242792943747127e-34 5.288711645805878e-34 2.9713458261797465e-33 6.4237235468471435e-28 8.097059252638362e-23 1.3816680791217076e-39 6.738100174588407e-34 3.647470041640999e-33 1.4734245917838867e-32 4.7012664718296947e-32 1.2563156488754196e-31 2.9183663057935316e-31 6.063365983019216e-31 1.1519365273122479e-30 2.0356477752155215e-30 3.390825813257436e-30 5.3791397036046566e-30 8.192844631325737e-30 1.2056693460256793e-29 1.7230649626944642e-29 2.401123237085977e-29 3.2734565286428126e-29 4.3777893555891334e-29 5.756083889176509e-29 7.454812582217794e-29 9.524946587395006e-29 1.2021964541849745e-28 1.500560913878273e-28 1.85392984266054e-28 2.2688673065091884e-28 2.7518549594627256e-28 3.3087371974089208e-28 3.9435504361454187e-28 4.656392609766066e-28 5.4395942879446295e-28 6.271261709574362e-28 7.105895447095381e-28 7.864419927097809e-28 8.432829529177601e-28 8.678362494266212e-28 8.490698828668758e-28 7.803497422476852e-28 6.610894743215938e-28 3.714185215309303e-27 8.029660857282476e-22 1.0121331967540958e-16 4.138839436380757e-33 1.9781732020939086e-27 6.153437642937944e-27 1.633845097424785e-26 3.861543559491289e-26 8.22284117939049e-26 1.5965603427488054e-25 2.863373078021503e-25 4.802740857592013e-25 7.616763576641052e-25 1.1527238671011428e-24 1.677419916782249e-24 2.361558410675269e-24 3.2326379787987297e-24 4.319940254412919e-24 5.654394274154385e-24 7.268654998063223e-24 9.196978621223536e-24 1.1475146287396566e-23 1.4140328784277715e-23 1.72307451614551e-23 2.0785119410776097e-23 2.484185391578043e-23 2.9437385724204313e-23 3.460257290722547e-23 4.035707211294056e-23 4.6697279222052457e-23 5.357564909115784e-23 6.086300966759157e-23 6.828447429274118e-23 7.532015416163976e-23 8.107810270151966e-23 8.421498816913862e-23 8.309851070656235e-23 7.65872509630564e-23 6.469574112306231e-23 4.9365378482693535e-23 3.295065524401741e-23 1.8058775105882035e-23 1.5964868800326703e-21 2.019170163198043e-16 7.115740308633209e-27 3.592057977746749e-21 8.059475575848656e-21 1.547230179954365e-20 2.7927773848774883e-20 4.7667649093565413e-20 7.706080965048137e-20 1.184355059520988e-19 1.7399215210941536e-19 2.4576553459677354e-19 3.356293544835566e-19 4.453237257312173e-19 5.764852509661678e-19 7.306651893615786e-19 9.093613578863577e-19 1.1140169631077536e-18 1.346028945558449e-18 1.606746085073763e-18 1.897460837054047e-18 2.2193923536747894e-18 2.573655598153873e-18 2.961191448653549e-18 3.3826948196949153e-18 3.8383847247205575e-18 4.327652026484874e-18 4.8483793759110236e-18 5.395780871474582e-18 5.960227097394387e-18 6.523493626064922e-18 7.052714641123248e-18 7.490822143269912e-18 7.745995221006809e-18 7.681085097406478e-18 7.138885160892224e-18 6.024486101073825e-18 4.539436141130553e-18 2.932688984800374e-18 1.6093237304382704e-18 6.864671127160028e-19 1.8326061202598208e-19 3.0254332185892896e-16 7.582727813228472e-21 3.980681839712329e-15 7.135069815356333e-15 1.0823876819122078e-14 1.5642976690306834e-14 2.1898800976703898e-14 2.9749295427011203e-14 3.9259834350852854e-14 5.0434297419375486e-14 6.323887237151595e-14 7.761916292438397e-14 9.351265644191535e-14 1.1085624653068752e-13 1.2958946076979415e-13 1.4965457738108386e-13 1.7099822839489657e-13 1.935704081701064e-13 2.17322709866555e-13 2.4220711625810365e-13 2.6817393285027915e-13 2.9516972480581333e-13 3.2313221161464853e-13 3.519837719733426e-13 3.8161791239696906e-13 4.1187596787074786e-13 4.425065220526516e-13 4.730938844922607e-13 5.029342003245208e-13 5.308224125991793e-13 5.546970250237806e-13 5.711275326919711e-13 5.743436088321174e-13 5.564472296520102e-13 5.029603160210422e-13 4.070011590547225e-13 2.6768234911591495e-13 1.5492120515940518e-13 6.893742566230582e-14 2.3202233598738817e-14 4.547596980809491e-15 4.045274948622655e-16 5.153860163921809e-15 2.823919290065424e-09 4.0083944857989635e-09 4.9568191581544586e-09 5.9084351181035934e-09 6.915496716690317e-09 7.977503633240064e-09 9.079612014561111e-09 1.0204956915815585e-08 1.133880053662841e-08 1.2469526197758666e-08 1.3588412529552175e-08 1.4689222906773322e-08 1.5767452397837773e-08 1.6819976524327787e-08 1.78445389376478e-08 1.883950261491573e-08 1.980360128151663e-08 2.0735733392283727e-08 2.1634898138745266e-08 2.2500018914400127e-08 2.332981311375171e-08 2.4122506639144634e-08 2.487548122614939e-08 2.5584680291388235e-08 2.6243534112817324e-08 2.68411794362984e-08 2.7359445745245468e-08 2.7767690186742996e-08 2.8014408055997692e-08 2.8010984553765544e-08 2.7619205632404337e-08 2.6542214299819245e-08 2.4687921404819896e-08 1.963502935440856e-08 1.4625903971223075e-08 6.0503909853693655e-09 2.1351176571514392e-09 5.220143542846193e-10 7.284175169721555e-11 6.303954654862234e-16 1.9423323651216017e-09 0.0012139562780811941 0.00117438275865748 0.0011517443406878587 0.0011286539833454516 0.001105225537983778 0.001081555751274404 0.0010576822215656255 0.001033562743990313 0.0010092236399192934 0.0009846139616119674 0.0009597267439468849 0.0009345671903662598 0.0009090855957234867 0.0008832966965001025 0.0008571782793109172 0.0008307248831055103 0.0008039042953371855 0.0007766990691257157 0.0007490921173158708 0.0007210807035576912 0.0006926190113783322 0.0006636748355930599 0.0006342296964218533 0.000604235232562336 0.0005736122279835361 0.000542307798958222 0.0005102071336187343 0.0004771747198406869 0.0004429489065469425 0.000407311261181657 0.0003693489213783571 0.0003302141722242469 0.0002782244085798296 0.00028123005522954516 2.0264678417535908e-08 1.1212252445217228e-08 3.97595894701317e-09 1.075546656748566e-09 1.5696660147755773e-10 9.732084688687139e-16 1.2873423621332757e-10 8.045834273778979e-05 6.545814261417234e-05 6.323749818505799e-05 6.110287108687335e-05 5.9209030676727585e-05 5.7578463037440235e-05 5.6048370140433795e-05 5.4393467289208636e-05 5.248064767888119e-05 5.031964796526957e-05 4.800708602267469e-05 4.56436044031926e-05 4.329290889617706e-05 4.098656832042327e-05 3.8736744029416124e-05 3.6546002405546064e-05 3.441549678491138e-05 3.2346568033817674e-05 3.0340083404083147e-05 2.839661142773749e-05 2.651694789111945e-05 2.4701296546203984e-05 2.2951458228505204e-05 2.126750465491058e-05 1.9649714698342284e-05 1.809903992566365e-05 1.6615532050680476e-05 1.5198610270635852e-05 1.3846668669768442e-05 1.2558053689188626e-05 1.1329119079449056e-05 1.0154205726498198e-05 9.006784763434325e-06 1.4037719755982037e-05 2.0275419274310282e-08 1.1098339151062961e-08 4.483224810529834e-09 1.2204220179002354e-09 1.8753204934542554e-10 1.3606354980482905e-15 2.6717580607266655e-10 0.00017240516890240146 0.0014662366765682902 0.006011905170215994 0.015459601589600701 0.027839050714408505 0.037185241756463115 0.03811245359308927 0.030616561551764038 0.019540745963523155 0.009994758322557685 0.004117818915972227 0.001370039129394448 0.00036837256944144306 8.007940015330951e-05 1.418207925780305e-05 2.1830092806507143e-06 4.2297270417257486e-07 1.938082737688013e-07 1.4767481027772816e-07 1.221301736574065e-07 1.0155921895280384e-07 8.4367770204093e-08 7.00395618059398e-08 5.817141039434707e-08 4.841453796577305e-08 4.046550477858184e-08 3.40590171361304e-08 2.8963379351964452e-08 2.4976943970318034e-08 2.192268866959481e-08 1.9645286040822382e-08 1.80106590989891e-08 1.6894945844668504e-08 1.621536771509129e-08 1.5476371239068268e-08 9.909279252097002e-09 4.016029153279055e-09 1.157200998566094e-09 1.8230407783286086e-10 1.7669119046135057e-15 2.6556966844510334e-10 0.00017141525761507577 0.0014726457784995112 0.006060400012404493 0.015634715030606882 0.028242406615773534 0.03783909427030606 0.03889625220303194 0.031333592822516784 0.020051251261580656 0.010280861255634459 0.004245269345910136 0.001415254520903586 0.0003811115466830913 8.281964311324114e-05 1.4527776487849638e-05 2.0956319462862437e-06 2.9248130526865694e-07 7.825283826922017e-08 5.136780302288751e-08 4.2924585893677496e-08 3.6980487115168116e-08 3.219269027119922e-08 2.830877231729085e-08 2.516341318551977e-08 2.2619893779411434e-08 2.0563953038348616e-08 1.8900526586643653e-08 1.7550434300478163e-08 1.6446973426048073e-08 1.5532322668965628e-08 1.4752024898085103e-08 1.4052669569429596e-08 1.3347182730477207e-08 1.2579860091965988e-08 1.1045802110713782e-08 7.494392714833273e-09 3.360141965105954e-09 1.0177942403305324e-09 1.7023608031655342e-10 2.211322716843775e-15 2.563099006218306e-10 0.00016544288245258607 0.0014347101092047107 0.005950848332942015 0.015470773389107064 0.0281579492881487 0.03800347736554135 0.03934076349336247 0.0319040405813063 0.02054474075803462 0.010595814880125566 0.004399008284255709 0.0014738392162348284 0.00039867220155567415 8.696965259291753e-05 1.5278753606217826e-05 2.1769840628198263e-06 2.7497301911771527e-07 5.3542668224957285e-08 3.0228359801206926e-08 2.5689039683954788e-08 2.303614897621249e-08 2.0948479841847184e-08 1.9259775156937457e-08 1.7884123373955953e-08 1.6752905650290802e-08 1.5810193748815082e-08 1.500967832008654e-08 1.4312282063270059e-08 1.3683521959068786e-08 1.3090247745273173e-08 1.2496607482234005e-08 1.1855549770303208e-08 1.1099209878721134e-08 1.0081250475695448e-08 8.414398077762635e-09 5.6609110967981385e-09 2.6684333244265536e-09 8.641252363751994e-10 1.5462445929973986e-10 2.7223960746076156e-15 2.4152686073852894e-10 0.0001558862303520311 0.0013683889615918605 0.00574448001423382 0.015112874105996944 0.02782901694687586 0.03798540859879734 0.03974895309894097 0.03256621594204657 0.021172890182356897 0.01101729632579322 0.004611639050474173 0.0015567823991972662 0.00042402286623549406 9.30843924910344e-05 1.6437385655809034e-05 2.3415226488480222e-06 2.8484390610376364e-07 4.60934911861251e-08 2.2653869409045124e-08 1.939813914409784e-08 1.7881161100375053e-08 1.6703691810270443e-08 1.5733150160657997e-08 1.4917778324648935e-08 1.4217801842651624e-08 1.3600584728167717e-08 1.3038460876542268e-08 1.2506768273076154e-08 1.1981633555666757e-08 1.1437385000502326e-08 1.0842405888723393e-08 1.0152909572619148e-08 9.299296751621253e-09 8.156122054785172e-09 6.529576415146962e-09 4.3309591997085324e-09 2.1126420913674047e-09 7.214065636678233e-10 1.386327330478745e-10 3.3459899490255227e-15 2.2234382249263124e-10 0.00014347641485303484 0.0012792646013642228 0.0054582339693312635 0.014592922101737422 0.027299116043819866 0.03783542319882304 0.04017503803578598 0.0333734291619627 0.02198015406516263 0.011575145899156154 0.004898792374439463 0.0016704266492118323 0.00045920090239412735 0.00010166455102607376 1.809050657443744e-05 2.589443478353451e-06 3.102657159167326e-07 4.457040361714091e-08 1.9185700284898424e-08 1.6342615295064294e-08 1.5298103638311703e-08 1.4494399239615712e-08 1.3808980220187427e-08 1.3207005543448246e-08 1.2662652774315575e-08 1.2154223614981466e-08 1.1662481007083303e-08 1.1168989067571768e-08 1.065444232135891e-08 1.0096333233445409e-08 9.465924853857714e-09 8.72352381200238e-09 7.811217106228621e-09 6.648390278054611e-09 5.155236225131751e-09 3.372633482731526e-09 1.683777461507048e-09 6.019721626611903e-10 1.2371439719660489e-10 4.1570577222530595e-15 1.997911985397839e-10 0.00012888220821136382 0.0011715076243932873 0.005102149337952061 0.01392224115589263 0.02657163014473885 0.03754987323863045 0.04062035137340345 0.034341889322758674 0.0229927337804281 0.012293829278240957 0.005275982781784803 0.0018220394638215562 0.0005067047841039363 0.00011337850724309731 2.037222704483991e-05 2.9391098783783417e-06 3.504659693942127e-07 4.622258753845042e-08 1.7375689249903978e-08 1.453741628891476e-08 1.370342321434694e-08 1.3068397949529255e-08 1.2505785447941392e-08 1.1989611896606558e-08 1.150161220969985e-08 1.1025921360635708e-08 1.054773290453391e-08 1.0052020775926491e-08 9.52219730982652e-09 8.938498113562004e-09 8.276020927846151e-09 7.50258389328439e-09 6.577647404280956e-09 5.458500174638473e-09 4.128619232654539e-09 2.6712650796079925e-09 1.3578551767344609e-09 5.049953374401077e-10 1.1045933181812497e-10 5.2865888643724264e-15 1.7498722565400663e-10 0.00011282967690811989 0.0010493675746699037 0.004685673607698997 0.013108079140310277 0.025638121144726925 0.03710279392824755 0.04106235074116997 0.035472485258787004 0.024233417364781486 0.013200604295934329 0.0057623280077127945 0.0020210056318835717 0.000569960297307078 0.0001291639374422011 2.3480883670038255e-05 3.422182085417187e-06 4.0846854105226194e-07 5.044224837542545e-08 1.641420860763345e-08 1.3311161602538638e-08 1.2564121481088696e-08 1.2006415415386555e-08 1.149576236026697e-08 1.1010908067529175e-08 1.0538091220340552e-08 1.0065004059471804e-08 9.579668649461128e-09 9.069482788970437e-09 8.520276054607142e-09 7.915386593327133e-09 7.234849712392678e-09 6.455359478181305e-09 5.552762594058529e-09 4.511207208758885e-09 3.346502340006857e-09 2.1479020013271255e-09 1.1084126564708035e-09 4.26887596222971e-10 9.887587353293149e-11 6.97862241969251e-15 1.49089962124523e-10 9.607054051095215e-05 0.0009174535520439349 0.0042193913022216725 0.012157835415778084 0.024483934256021786 0.03645394410894096 0.04146068083062246 0.03675473497342671 0.02572353738531847 0.014328313292638322 0.00638307838385325 0.002280163141285087 0.0006537433085469992 0.00015036703862267815 2.770704922310065e-05 4.086875991159537e-06 4.901908144050405e-07 5.7467636669995476e-08 1.6012521052475606e-08 1.2395049784188956e-08 1.166561965685759e-08 1.113972938727785e-08 1.06467307820645e-08 1.0167591333719474e-08 9.691562479119908e-09 9.208846273767443e-09 8.709652112476726e-09 8.1835106903014e-09 7.618750343324003e-09 7.002151605235844e-09 6.319048293368963e-09 5.554606797705986e-09 4.697617363164533e-09 3.7492167132679834e-09 2.7393574116354215e-09 1.7488464800146273e-09 9.148127749060542e-10 3.636066502929762e-10 8.877538476031689e-11 9.717414802615887e-15 1.2325866232712156e-10 7.935760615545906e-05 0.0007807029319604635 0.003715721501674351 0.011082320148552491 0.023094283675989955 0.03555264832348996 0.04175662654874266 0.03816393436411521 0.027483083107658717 0.01571655471347491 0.007170941161916181 0.0026172737259050087 0.0007649041556058789 0.0001789518455443015 3.3480282571586015e-05 5.005733367077133e-06 6.05013323249323e-07 6.810718700388255e-08 1.609643678878984e-08 1.1669786005764105e-08 1.0909722330020795e-08 1.039069215117515e-08 9.897377732214267e-09 9.411148794695058e-09 8.923510098930084e-09 8.426705108908127e-09 7.912892106823621e-09 7.373696290178807e-09 6.80002016471661e-09 6.182110761656885e-09 5.5102866587511116e-09 4.776751870291328e-09 3.979448618864161e-09 3.1290218330371418e-09 2.2593462972884764e-09 1.4379561958933987e-09 7.618642877508667e-10 3.117172634868314e-10 7.991183581858628e-11 1.45349010891873e-14 9.85973132436009e-11 6.340788348901254e-05 0.0006443482680470078 0.00318944567110968 0.00989789665666123 0.021457841832076354 0.034339422095068205 0.041870762579185955 0.039656125728561344 0.02952642439914437 0.017412405271000426 0.008169573785015784 0.0030570659407295757 0.0009132854602343525 0.0002178185615340017 4.144638405459623e-05 6.288940698881214e-06 7.675078739632887e-07 8.37980707216619e-08 1.671473401523229e-08 1.108109132312703e-08 1.0247008174043517e-08 9.719552345207832e-09 9.215789885672595e-09 8.71574769527102e-09 8.212771616764275e-09 7.700977311301942e-09 7.1743919294937834e-09 6.626733942321911e-09 6.051396359836785e-09 5.441859146116101e-09 4.792644490852447e-09 4.101214506043181e-09 3.371270653069773e-09 2.6177376294686337e-09 1.87295439894649e-09 1.1906218070195594e-09 6.386966986090763e-10 2.685083522226979e-10 7.20484871173184e-11 2.3816220121139966e-14 7.60774507219496e-11 4.885217037190759e-05 0.000513572622587679 0.0026574934223507476 0.00862835234526047 0.01957194614124233 0.03275075565807912 0.04170016378986505 0.04116030338093833 0.03185806662827279 0.01947135167544174 0.009436273206016744 0.0036341262189338295 0.001113308724402664 0.0002713296166752146 5.259283960053547e-05 8.107112344613471e-06 1.0003494205401384e-06 1.0686201613918632e-07 1.8022019409267394e-08 1.0608218370614321e-08 9.6508208218019e-09 9.10406006688082e-09 8.583556276285872e-09 8.065883611138657e-09 7.546041878043886e-09 7.019958053811256e-09 6.483531284150246e-09 5.932475530309854e-09 5.362492424251449e-09 4.769795334462263e-09 4.152108472883873e-09 3.5103687465224377e-09 2.8512927600652475e-09 2.1906394196130152e-09 1.5564783806696914e-09 9.898406027274305e-10 5.375916628669214e-10 2.3191980132772823e-10 6.49810368862012e-11 4.3648184636982766e-14 5.645739819575046e-11 3.6182045699315555e-05 0.0003932452842227241 0.0021384927691981527 0.007306570474534465 0.017448585270766415 0.030725743352167306 0.04111721983355494 0.042567045518173065 0.03445963464494881 0.021953169454707377 0.011045549780761367 0.004397532732913366 0.0013864010371577784 0.00034619068694577545 6.847059204864629e-05 1.0730279577104239e-05 1.3395610738934611e-06 1.4101109880276457e-07 2.0302712026899537e-08 1.0252556387811848e-08 9.106363422203593e-09 8.530749165947836e-09 7.98895230908169e-09 7.451143914017528e-09 6.9138465857812126e-09 6.374827572589327e-09 5.831834867954286e-09 5.2824482461394814e-09 4.7243259810310275e-09 4.15573491614852e-09 3.57651963217319e-09 2.989472855438149e-09 2.4022137008752796e-09 1.8291512569999777e-09 1.292964685731864e-09 8.237505657451717e-10 4.530395582141866e-10 2.0041297661472307e-10 5.85483579160524e-11 9.165379710565402e-14 4.0221685657161684e-11 2.5710486769129107e-05 0.0002874671460642331 0.0016517561609866779 0.005974893765462427 0.01512104480930732 0.02821694468063743 0.03997206543788108 0.04371622664539465 0.03727531399317345 0.024916307377265065 0.01309400495465564 0.005417119825322814 0.0017649845530368809 0.0004529385511182896 9.157458964361921e-05 1.4598496392555381e-05 1.8438474057939915e-06 1.9226299517758627e-07 2.4032123933469052e-08 1.0035540781313871e-08 8.60594535957312e-09 7.991085950885906e-09 7.423931206523523e-09 6.863830517077256e-09 6.3087158411374645e-09 5.758285528698684e-09 5.212073978199054e-09 4.669285739850484e-09 4.129040898482796e-09 3.5908738285873343e-09 3.055622294616907e-09 2.5265327595245236e-09 2.0105439601865208e-09 1.5194285555645248e-09 1.0702457484935976e-09 6.840118490311129e-10 3.8113369299395495e-10 1.7287499074086943e-10 5.2657816076351945e-11 2.280490629344776e-13 2.754384172158788e-11 1.7547514229009502e-05 0.00019914800482650992 0.001215507647221052 0.004684003720087249 0.0126504894966816 0.025206794800311298 0.03810295442853369 0.04438388709741395 0.0401844265473703 0.028403143948133446 0.015702351771270228 0.006792776241839656 0.002299023467984655 0.0006086108251865158 0.00012605854546994665 2.045450737919922e-05 2.6121895565500585e-06 2.706416445975934e-07 2.999736188101435e-08 1.0003253275096942e-08 8.147374912750169e-09 7.479891232953684e-09 6.8828595189147315e-09 6.298020253911833e-09 5.7245627300698015e-09 5.164180769515629e-09 4.6180992219574355e-09 4.0867919660687745e-09 3.570161743787366e-09 3.0681052524516022e-09 2.5813278987113994e-09 2.112303343389418e-09 1.6661862113471787e-09 1.251429317715805e-09 8.797675910478428e-10 5.649053951248716e-10 3.192657465811815e-10 1.486795045481226e-10 4.743602405825355e-11 7.129682199795298e-13 1.8281689353110705e-11 1.1597195858313137e-05 0.00012963358203616756 0.0008447017479989332 0.003489258147704077 0.010129959969236525 0.021728842482756347 0.03535960516754232 0.04427661612847997 0.04296744461372983 0.032410598486328865 0.019012758221907566 0.008667190049346877 0.0030667645127779417 0.0008415372283325212 0.0001790871670736411 2.9600545846766703e-05 3.818378957369432e-06 3.934656181099288e-07 3.952517812263067e-08 1.0239392688623773e-08 7.735330032965997e-09 6.996107958115471e-09 6.363356481626087e-09 5.750577053561098e-09 5.157830958667809e-09 4.5888839535160826e-09 4.0464587298145135e-09 3.5316996151178085e-09 3.044423379652469e-09 2.583798767057052e-09 2.1492895665660044e-09 1.7415809260951813e-09 1.3633113694047009e-09 1.0194118995902545e-09 7.169136628267028e-10 4.638352940368197e-10 2.669870622138872e-10 1.2876356866380484e-10 4.437148526511707e-11 3.169005690339713e-12 1.2026689714682834e-11 7.590542638553057e-06 7.852632045453262e-05 0.0005486847699354031 0.0024438071208581894 0.007682197615665508 0.017891300957260957 0.03164576640074412 0.04304352655255694 0.04526183391709937 0.03683631668219189 0.023172977291639557 0.01124029108651044 0.004192809214058933 0.0012002862791783515 0.0002635170786042768 4.443259008858114e-05 5.782996572392915e-06 5.921535460310032e-07 5.4948459593024516e-08 1.0897319760206636e-08 7.392188286622005e-09 6.554036720461939e-09 5.879476217148741e-09 5.236805473728926e-09 4.625968414329668e-09 4.052509587048964e-09 3.5198780628882336e-09 3.028763759688759e-09 2.5775382993485416e-09 2.163418400920898e-09 1.7836743806056112e-09 1.436626309925811e-09 1.1222452848474994e-09 8.422910551971089e-10 6.0003383315583e-10 3.993665727435187e-10 2.433638713504556e-10 1.3239848687859952e-10 6.260768368574602e-11 2.655774315048848e-11 8.194997426859802e-12 5.145352421730651e-06 4.380082215500741e-05 0.00032927389129124127 0.0015893679454244563 0.00544707425992683 0.01389241506110992 0.026982074757135287 0.04032674124014494 0.04652718928444698 0.041390992352643007 0.028288319653832647 0.014781590661261213 0.005876775079830007 0.0017707638582076044 0.00040352830441508564 6.96042089694445e-05 9.13384140468716e-06 9.272702440499138e-07 8.062307789789419e-08 1.2299825594786583e-08 7.236297529534052e-09 6.296622700908832e-09 5.628904944699833e-09 5.029918363008067e-09 4.494893707491407e-09 4.02266949829266e-09 3.6051840530064452e-09 3.229174616161846e-09 2.8813236425809923e-09 2.55201518104298e-09 2.2370715461086923e-09 1.937084238640209e-09 1.6558131568617586e-09 1.3985018424882474e-09 1.1706207080725303e-09 9.76926131483831e-10 8.20523733106547e-10 7.02058099320093e-10 6.191663785023009e-10 5.668755801170995e-10 6.144677610873411e-12 3.8431985255853535e-06 2.2247639773665735e-05 0.00018025992736153738 0.000946442697249247 0.003557007177083769 0.010014801301511259 0.021577725723766462 0.03587433377832777 0.04605535375984894 0.04547622101853569 0.0343088774188903 0.019619737680622404 0.008436642622345843 0.002709355404950338 0.0006468795612114721 0.00011474337717534572 1.5190362119218316e-05 1.5247067440871962e-06 1.254105154534024e-07 1.5401241729620196e-08 8.209183842131142e-09 7.918751401658659e-09 8.633358758263119e-09 1.0209561281911111e-08 1.2697801556658087e-08 1.5948873932334117e-08 1.9580492307392153e-08 2.3096184384367024e-08 2.603652486806597e-08 2.812856146987477e-08 2.929840867158595e-08 2.9633758940072073e-08 2.930829340792254e-08 2.852292122352379e-08 2.7463743514599618e-08 2.628251134818853e-08 2.5091755093112e-08 2.396472415134634e-08 2.2943785438394446e-08 2.2044163362429845e-08 5.2657491851459706e-12 3.290086917353516e-06 1.0777852542559203e-05 9.308451219880178e-05 0.0005282137794445254 0.0021654318294500956 0.0067086144283632874 0.016033925460459078 0.02978703983391217 0.04298865972554013 0.04790474998430775 0.040776505842671146 0.026057266513845576 0.01235982547926335 0.004306591377445841 0.0010929591056325733 0.00020126795473384532 2.6975471003303832e-05 2.6715451304248503e-06 2.0949002291310653e-07 2.4741405645209047e-08 2.0061106419834392e-08 3.566249536506345e-08 6.951519563738023e-08 1.306155832508998e-07 2.2544599691186252e-07 3.526056828920788e-07 4.999457053913348e-07 6.484781068096044e-07 7.815384517919486e-07 8.879663082252384e-07 9.64189408889957e-07 1.0115193481986666e-06 1.0343081961032705e-06 1.0381206017368246e-06 1.028506014113765e-06 1.0102804033087402e-06 9.873251015335452e-07 9.624774588119822e-07 9.375950107599667e-07 9.13850880667331e-07 4.98187876758854e-12 3.1109693323750654e-06 5.109194585123029e-06 4.57180576922832e-05 0.00027868427567992503 0.0012389781561954968 0.004200265994520803 0.011080864760598745 0.02291672024963699 0.037132636510530365 0.04686270834728364 0.045583891504367494 0.03357366456694696 0.018410313046297637 0.0073384065677445775 0.0020361693277256556 0.00038091289077271624 5.216201044165112e-05 5.1013397656470645e-06 3.842270535212295e-07 6.66019288187945e-08 1.4724189376213348e-07 4.565667380061673e-07 1.2480831489171707e-06 2.8991958625718753e-06 5.747635325957418e-06 9.709769135440595e-06 1.4323575453258566e-05 1.8946868978481967e-05 2.30000081989926e-05 2.62976788173297e-05 2.877857840376823e-05 3.0500059190974167e-05 3.157327481598995e-05 3.2132252700709774e-05 3.230852668552388e-05 3.221745810079061e-05 3.195457796387544e-05 3.159175746918301e-05 3.118129320003821e-05 3.075475970406111e-05 4.978166717743339e-12 3.1070035217256112e-06 2.5192906644138207e-06 2.1290405984743993e-05 0.00013847898488444425 0.000664192947471386 0.0024514710344224165 0.007104121564359526 0.016284857136498656 0.02952522903762482 0.04213869717802298 0.046950341635003875 0.04027588750606638 0.026254055812079898 0.012777509477406171 0.004498992999139324 0.0011001858506560242 0.00017871714142538784 1.5002365062480342e-05 7.835456209667598e-07 2.13724109283259e-07 1.1427185383527094e-06 5.765329675993406e-06 2.1629537201003857e-05 6.172814518768515e-05 0.00013392722128823824 0.0002403890153778603 0.0003540145610318366 0.0004493106882886097 0.000528135421774182 0.0005895027241171739 0.0006353053809586405 0.0006677492476021557 0.0006893646424634323 0.0007025429835491676 0.000709412946916251 0.0007117837567207232 0.0007110829176169397 0.0007084237273623643 0.0007045754697965644 0.0007000532135298933 5.181274466223527e-12 3.2320726052570978e-06 1.5575750425223917e-06 9.436329513078431e-06 6.45039508216143e-05 0.0003321114406501063 0.0013284959052925875 0.004209964122188262 0.010649432250816273 0.021513033652681902 0.034588857056196784 0.0440061092361498 0.04389855038765287 0.0340857012093239 0.02044548502080508 0.009361500071162187 0.003229148422506475 0.0008275766159088807 0.00014841396573955952 1.7145343234145403e-05 9.983539219924283e-07 2.9436099442131183e-06 3.8148731600258064e-05 0.0002524866675117683 0.0009909385941206175 0.0026238547743334013 0.004261156607998069 0.005350674098183357 0.00616136730809278 0.006743036436065035 0.007164548507185735 0.007462834631915384 0.0076689335066653505 0.007805720007776658 0.007891200657219996 0.007939325176045519 0.007960912335437862 0.007964237438912815 0.007955446787905258 0.007938885921731833 0.007917338246741772 6.000248002121557e-12 3.7409561135850353e-06 1.7113332226371662e-06 4.304935563445788e-06 2.8138061389265295e-05 0.0001540194297999023 0.0006647616797045543 0.0022943243411121107 0.006377849350582147 0.014293274147831644 0.025767038792065895 0.03723303124622037 0.04290430213478561 0.03933353143873333 0.028690588799725126 0.01666164409129765 0.007727462821023513 0.002878402830318715 0.0008577947407699615 0.00020265856639150722 3.638729576299413e-05 7.326251122169972e-06 3.9659776669815254e-05 0.0002958238330394992 0.0008144745837889441 0.00011969356178907917 0.00011276368999005643 0.00014719668513793919 0.0001674800457499904 0.00018753179635120747 0.00020571181400566118 0.0002228577005855572 0.0002389672813487972 0.0002540338484891455 0.00026794622223239056 0.0002804721246090598 0.00029133747700170367 0.0003002063784961663 0.0003067261200216572 0.00031058205942558864 0.00031156215363536684 9.474651103907545e-12 5.903885428419001e-06 3.927976537436565e-06 3.623823685265941e-06 1.2376258795564405e-05 6.625036607869017e-05 0.0003051053132203615 0.0011418654501138019 0.003475015985841162 0.008604396779437837 0.01731054786476836 0.02824278556449047 0.03729316824596434 0.03990227896779344 0.034762113923524525 0.024839366532535618 0.014709142499069752 0.007311050408853409 0.0030826867179637135 0.0011117079466292402 0.0003440139926107871 9.23099546159468e-05 5.357748316707794e-05 0.00027076358880242255 0.0007549252761428046 4.7344725809045616e-05 4.781383638675673e-06 4.923931406352452e-06 5.071706856774564e-06 5.22188898753668e-06 5.376948608293887e-06 5.5378564173876215e-06 5.703631990914686e-06 5.87212741014333e-06 6.039743535663338e-06 6.2014481673065145e-06 6.3505378398817504e-06 6.47893299160657e-06 6.5772526747089375e-06 6.631729834450528e-06 2.3151904587161445e-06 2.300195313017396e-11 1.4325665673621915e-05 1.3436475000668683e-05 1.0364459375314548e-05 1.0623389992361003e-05 2.9503695832577083e-05 0.00012915046943948473 0.0005151581420251119 0.0017075639899094778 0.004653372760209614 0.0104022646575993 0.01905680608632895 0.02861376045434261 0.03533705134213888 0.0361652484222819 0.03100078496590284 0.02255641690860121 0.014144530906878996 0.007758245434555394 0.0037760842652956286 0.0016514155997394348 0.0006627730904583248 0.0002653821096137318 0.0002778844044019754 0.0006546678158138849 0.0006662120657394166 0.0006827712243245423 0.0007029969381192106 0.0007258074961137025 0.000750832811106934 0.0007779628505407458 0.0008073140910296825 0.000