# vtk DataFile Version 3.0
vtk output
ASCII
DATASET RECTILINEAR_GRID
DIMENSIONS 41 41 1
X_COORDINATES 41 double
0 1 2 3 4 5 6 7 8 9 10 11 12 13 14 15 16 17 18 19 20 21 22 23 24 25 26 27 28 29 30 31 32 33 34 35 36 37 38 39 40 
Y_COORDINATES 41 double
0 1 2 3 4 5 6 7 8 9 10 11 12 13 14 15 16 17 18 19 20 21 22 23 24 25 26 27 28 29 30 31 32 33 34 35 36 37 38 39 40 
Z_COORDINATES 1 double
0
POINT_DATA 1681
FIELD FieldData 1
Concentracao 1 1681 double
0.0 5.408193734894559e-40 2.9275226306797577e-39 1.18257906929617e-38 3.773212670171632e-38 1.0082997624253546e-37 2.342207842293704e-37 4.866249317415043e-37 9.244942811639573e-37 1.633704670065171e-36 2.7212704774715257e-36 4.316924867883414e-36 6.574940807934767e-36 9.67566634677355e-36 1.3827697996495023e-35 1.926896079143409e-35 2.62691523225042e-35 3.5130960675160687e-35 4.61910637552386e-35 5.982232325302596e-35 7.643369012179647e-35 9.647027138132669e-35 1.2041135321060153e-34 1.4876574241604334e-34 1.8205999292135546e-34 2.2081410385728807e-34 2.654968767263703e-34 3.1643203673743257e-34 3.736272942465847e-34 4.364670692370869e-34 5.031945624928504e-34 5.701589684721722e-34 6.310155524328401e-34 6.7661722909740205e-34 6.963122700572052e-34 6.8124983282190215e-34 6.261078280826871e-34 5.304633506772238e-34 2.0045617705034542e-32 4.896499926528278e-27 6.171632873626584e-22 1.3862094753304334e-39 6.760247576811934e-34 3.6594061833704226e-33 1.478225013947522e-32 4.7165196109272104e-32 1.26037566431633e-31 2.9277620046522993e-31 6.082816151045228e-31 1.1556187061556918e-30 2.0421323479516494e-30 3.4015908030034316e-30 5.396160142966012e-30 8.218682562960603e-30 1.2094592469486208e-29 1.7284636292613232e-29 2.4086220258253404e-29 3.283646667228257e-29 4.391373402470416e-29 5.773887393642657e-29 7.47779638886057e-29 9.554218908593571e-29 1.20587928628071e-28 1.5051431192460511e-28 1.8595731208634774e-28 2.2757517321168724e-28 2.7601785063571392e-28 3.3187136037321825e-28 3.9554035989465602e-28 4.670344706945408e-28 5.4558426865230355e-28 6.289937063106255e-28 7.126992655571202e-28 7.887700666526256e-28 8.457722129889816e-28 8.703910338837766e-28 8.515629722772105e-28 7.826354112111869e-28 6.630797085036407e-28 2.5057041915415802e-26 6.120629804660274e-21 7.71454711479475e-16 4.15244335751139e-33 1.984675243401157e-27 6.17355999339285e-27 1.6391620283832996e-26 3.874051812804308e-26 8.249358107869707e-26 1.60168675368158e-25 2.8725285509622057e-25 4.818034244881023e-25 7.640919555193906e-25 1.156365027819287e-24 1.6826974626476855e-24 2.3689591584138932e-24 3.2427288507628482e-24 4.3333725380312135e-24 5.67190737327518e-24 7.291080340478398e-24 9.225243103883008e-24 1.1510275416821919e-23 1.4183449342092108e-23 1.7283086788645156e-23 2.0848014530568062e-23 2.4916735175027877e-23 2.952577857225545e-23 3.470607757702544e-23 4.047732923504063e-23 4.6835900456863656e-23 5.37340880944745e-23 6.104232478895306e-23 6.848490806760416e-23 7.554043088619213e-23 8.131436884642793e-23 8.445954075558583e-23 8.333901391567805e-23 7.6808208386879e-23 6.488183329906017e-23 4.950697630760056e-23 3.3044915093350505e-23 1.8151895523207477e-23 1.2125985597005148e-20 1.5390250420332513e-15 7.139128971415922e-27 3.6038646789383844e-21 8.08579918451979e-21 1.552255813720532e-20 2.801800997808541e-20 4.7820872255611654e-20 7.73072542512419e-20 1.188123601709915e-19 1.7454301382725933e-19 2.4653975946194985e-19 3.366814318411006e-19 4.467127533332777e-19 5.782745142283582e-19 7.329218063596806e-19 9.121560300433908e-19 1.1174237292249866e-18 1.3501249675693365e-18 1.6116114343956238e-18 1.903178263068968e-18 2.22604700895115e-18 2.5813346805866566e-18 2.9699836490502224e-18 3.3926895707213484e-18 3.849670800447504e-18 4.340315151018641e-18 4.862497920958793e-18 5.411418303403519e-18 5.9774183555441135e-18 6.5422210867336036e-18 7.072867398720647e-18 7.512129077955096e-18 7.767929718927458e-18 7.702741734193174e-18 7.158929797120439e-18 6.041335424441617e-18 4.5520875909225885e-18 2.9408347402301108e-18 1.6137797679969054e-18 6.883622849066653e-19 1.9948387206782157e-19 2.3060054890805513e-15 7.607651392132416e-21 3.9937658944241585e-15 7.158326839118324e-15 1.0858923286179004e-14 1.5693305584986363e-14 2.196880871419153e-14 2.9843787640182834e-14 3.938372257765219e-14 5.059240213948313e-14 6.343580659381783e-14 7.785927241171855e-14 9.380000043338417e-14 1.1119460234203865e-13 1.2998233828450986e-13 1.5010523399935017e-13 1.7150968841329453e-13 1.941454789758461e-13 2.1796399277730294e-13 2.429170138216971e-13 2.689546502768975e-13 2.9602326572296057e-13 3.240603597636967e-13 3.529880552808811e-13 3.8269953057904884e-13 4.1303565749604555e-13 4.4374431325185467e-13 4.744086679348579e-13 5.043229670431293e-13 5.322789357696792e-13 5.562096149789521e-13 5.726754743113264e-13 5.758910813824739e-13 5.579379762968901e-13 5.043004110318712e-13 4.080802261183624e-13 2.683882914479721e-13 1.5532825782691448e-13 6.91179579506547e-14 2.326282024551036e-14 4.5594637631241206e-15 3.083274114273951e-15 5.1708003041457515e-15 2.833201183741867e-09 4.021407011193597e-09 4.9727709787309166e-09 5.927284526177669e-09 6.937358461214571e-09 8.002483415810293e-09 9.107764020371455e-09 1.023628003768316e-08 1.1373247438116747e-08 1.2507014562547348e-08 1.3628835289618876e-08 1.473245676176429e-08 1.581336360969093e-08 1.6868425596344443e-08 1.7895383528643816e-08 1.8892599659778504e-08 1.9858808258395045e-08 2.0792909053762558e-08 2.1693903008879414e-08 2.2560715372855596e-08 2.3392065017598098e-08 2.418617833062737e-08 2.494043573504378e-08 2.565077605501313e-08 2.6310619151148904e-08 2.6909081480577843e-08 2.7427955307596132e-08 2.7836531757430555e-08 2.8083192178926805e-08 2.807912268028606e-08 2.768579847832219e-08 2.660568273317528e-08 2.4746517599795572e-08 1.9681299353870353e-08 1.4660370227067534e-08 6.0646489992746675e-09 2.1401492011945796e-09 5.2324453216971e-10 7.301341369602414e-11 4.012381399065122e-15 1.9487165712981277e-09 0.0012179464020989897 0.0011781476061040964 0.0011553872460219488 0.001132162615713465 0.001108594164344469 0.0010847822040971184 0.001060766400123158 0.0010365054027246543 0.0010120263874668835 0.0009872785330646374 0.0009622551373181986 0.0009369616461938462 0.0009113482552541376 0.0008854299442531518 0.0008591845269060071 0.0008326066618604366 0.0008056641295416772 0.0007783395647070402 0.0007506159718740499 0.0007224907784174125 0.0006939181605778875 0.0006648659962494675 0.0006353159608145758 0.0006052197583083763 0.0005744981770010625 0.0005430984851586859 0.0005109058803504515 0.00047778490383368035 0.00044347374427791843 0.0004077541589202263 0.0003697120731894566 0.000330503880610496 0.0002784251530165541 0.00028144811131796424 2.030351820511753e-08 1.1235438053663903e-08 3.984672362101529e-09 1.0779761618325278e-09 1.5732769978592626e-10 5.116465546241775e-15 1.229272572715035e-10 7.682897862479823e-05 6.191578781004129e-05 5.974260848709234e-05 5.7591022203977506e-05 5.5627087410203046e-05 5.3951714026862795e-05 5.249576052608216e-05 5.105973221438523e-05 4.944963942728891e-05 4.7587310728831985e-05 4.551792364330211e-05 4.333919106490096e-05 4.113525584462389e-05 3.89571364383913e-05 3.682770686068047e-05 3.475374521666927e-05 3.273757130617562e-05 3.0780688777457467e-05 2.8883916283642264e-05 2.704774652179531e-05 2.527287820458297e-05 2.3559451017981083e-05 2.1909105356767286e-05 2.0321853320294465e-05 1.8797901234934537e-05 1.73380866701337e-05 1.5942401258893822e-05 1.4610243704343082e-05 1.334005318590785e-05 1.2130227504731517e-05 1.0977297986691353e-05 9.875919851034699e-06 8.801169884964797e-06 1.3888882608667202e-05 2.0314165075038333e-08 1.1121297407740938e-08 4.492953055415301e-09 1.2231618998209987e-09 1.8796152833019886e-10 6.371027914660591e-15 1.3407955478242733e-10 8.686412679736151e-05 0.0008219187398320413 0.0038284557617137057 0.011219307164193369 0.023090410679461694 0.035356451286172846 0.04167577891905994 0.038635929310042415 0.02856288350288506 0.01698955309708238 0.008174753203917433 0.003190807141648804 0.0010111297743477436 0.0002599684893787153 5.4203188073275394e-05 9.248663366032788e-06 1.4031634522652475e-06 2.9471063035691843e-07 1.5066655026191624e-07 1.1774914819783951e-07 9.76785538731682e-08 8.133957011922885e-08 6.772547530643461e-08 5.643297066887897e-08 4.713488377368063e-08 3.954699125040459e-08 3.342049336509714e-08 2.8537855592418685e-08 2.470958550537992e-08 2.1769172377688798e-08 1.9570385989880385e-08 1.7986951332331754e-08 1.6901943644238913e-08 1.623788645961534e-08 1.5506702419469107e-08 9.929848633288246e-09 4.024756081919575e-09 1.1597995167129333e-09 1.8272179368179505e-10 7.821593753375465e-15 1.3193621882049734e-10 8.552228023710087e-05 0.000822332584053787 0.0038460535106051913 0.011308814351173823 0.023350519337991288 0.03586990799725221 0.04241333729639179 0.03943883896612635 0.02924104643772841 0.01744041224830379 0.00841336193797848 0.003291799991824075 0.0010454208943896054 0.00026921173778083924 5.60991426703423e-05 9.458553022979766e-06 1.322471380512608e-06 1.8989437006569583e-07 5.948001645797967e-08 4.2317965077718986e-08 3.6069199362363194e-08 3.1488376669154875e-08 2.7788052513954016e-08 2.4785549657317584e-08 2.235183021864809e-08 2.037960284965309e-08 1.877937542490086e-08 1.7476385225617986e-08 1.6407419613306187e-08 1.5517409309516232e-08 1.4754091770008134e-08 1.4065727511195694e-08 1.3366772033699282e-08 1.2602159089655599e-08 1.1068003539877318e-08 7.510076241575476e-09 3.367460209294834e-09 1.0200809716168031e-09 1.7062677433368618e-10 9.599615554666989e-15 1.264552463731954e-10 8.197567510063051e-05 0.0007966149781848995 0.0037558596215899734 0.011130747195404514 0.02316159452192522 0.03585041183743625 0.04270183517079337 0.03998631265801058 0.029844504551469822 0.017912073416518536 0.008691430042444735 0.0034191873817496846 0.0010913626347189014 0.000282367620674215 5.9079594699075176e-05 9.97393038349562e-06 1.3725148494211536e-06 1.743488028638634e-07 4.007426715370442e-08 2.5911097839852762e-08 2.2725363831024706e-08 2.069985538164758e-08 1.9082155492596016e-08 1.7760981511098727e-08 1.6670741757156535e-08 1.5758680572937224e-08 1.498093315682472e-08 1.4300273491428442e-08 1.3683612142083021e-08 1.3098845425914036e-08 1.251089961255874e-08 1.187329725594708e-08 1.1118559314081021e-08 1.0100485216619348e-08 8.43158560961242e-09 5.672850949719481e-09 2.6742621494241533e-09 8.660683726157853e-10 1.5498051039570717e-10 1.1909097697671707e-14 1.18233747853279e-10 7.663704377453649e-05 0.0007537623878808325 0.0035974802730392554 0.010791159081546079 0.02272441918828404 0.035584340367460596 0.042861755992712414 0.04056628794156347 0.0305836058869513 0.01852941616350038 0.009070145575165703 0.0035973676902361002 0.0011569429811676562 0.0003014633521460788 6.349204850855597e-05 1.0778000553229889e-05 1.4815593983455094e-06 1.7928541916782165e-07 3.396734984435038e-08 1.9959690896872235e-08 1.7768947890440863e-08 1.6600401567365798e-08 1.5663004977541614e-08 1.4873206183175545e-08 1.4192162105283716e-08 1.3588883619030201e-08 1.3036947361614175e-08 1.2512602633672126e-08 1.199263872034479e-08 1.1451858507110235e-08 1.0858976616859859e-08 1.0170418113923377e-08 9.316678484037363e-09 8.172250182628344e-09 6.543077591021537e-09 4.340159099137578e-09 2.117270941803041e-09 7.230309006214949e-10 1.3895388859385686e-10 1.508312403463143e-14 1.0781727140408138e-10 6.986627588664957e-05 0.0006973472866488632 0.003383361239690972 0.010316331803188293 0.022077641475993278 0.035117865369087856 0.04294366473047151 0.04123220865986364 0.031509565955750045 0.01933333405851708 0.00957531927346203 0.0038390433030965694 0.0012471402543941872 0.00032802401286300895 6.970255314753791e-05 1.1929908322462595e-05 1.648032431670791e-06 1.951841868156127e-07 3.2291319180691854e-08 1.7133660376852814e-08 1.5272486143016996e-08 1.4450120072883718e-08 1.3781690400830993e-08 1.3193292559783043e-08 1.2658839911356741e-08 1.2157560308909055e-08 1.1670915016265375e-08 1.1180967226361735e-08 1.066876153061527e-08 1.0112028945958101e-08 9.482183195766667e-09 8.739605969527984e-09 7.826384097902058e-09 6.661823652950218e-09 5.165998981812065e-09 3.379843030098183e-09 1.6874782261334878e-09 6.033304154863454e-10 1.2400404547793954e-10 1.9682133832265363e-14 9.579118464346555e-11 6.204612735395217e-05 0.0006303077699504175 0.0031222031239835288 0.009719296505157769 0.021229323677345372 0.034448037466292526 0.0429401521791405 0.04198790554230283 0.03264279706215748 0.02035187504338393 0.010230207329580968 0.0041579226457885655 0.0013677948406191443 0.0003639827160894302 7.819971780703964e-05 1.3525405089903999e-05 1.8844739706519932e-06 2.2119714211747805e-07 3.290357262122831e-08 1.555730069898105e-08 1.3725864908267053e-08 1.3052018183529814e-08 1.2498218135064506e-08 1.1989816682862837e-08 1.1507382670306378e-08 1.1035592657151084e-08 1.0560062219842857e-08 1.0066059605590382e-08 9.537196242400096e-09 8.953835005768363e-09 8.291143939111e-09 7.516963153481624e-09 6.59073268992289e-09 5.469694079811899e-09 4.137308087236804e-09 2.677008058173296e-09 1.3608497551185488e-09 5.061389321085341e-10 1.1072284321511036e-10 2.669805124277236e-14 8.280547009948838e-11 5.3601104291843144e-05 0.0005556983411647972 0.0028228101708394136 0.009011785510349885 0.020181021321609607 0.033553831932042484 0.04281846704039588 0.04281469174797929 0.03399280396583482 0.021612393837727346 0.011061749719295574 0.004571043263758902 0.0015267023170794218 0.00041198721695519144 8.967999167589146e-05 1.57065859473565e-05 2.212902238573352e-06 2.5933269077017593e-07 3.530962810435353e-08 1.4614032108980638e-08 1.2621512056048286e-08 1.2004838597570965e-08 1.1498129456732346e-08 1.1017898822525085e-08 1.05483145256714e-08 1.0077378353632895e-08 9.593380970628988e-09 9.08390378291383e-09 8.534896020686204e-09 7.929767270747402e-09 7.24858681636941e-09 6.468053487849344e-09 5.5639998914676446e-09 4.520563016745987e-09 3.353595056819118e-09 2.152545308416017e-09 1.1108675357599288e-09 4.2786099929610483e-10 9.911991014288355e-11 3.798798244381077e-14 6.952213710668518e-11 4.496324233805387e-05 0.0004767632574401409 0.002494953231037682 0.008206952820443935 0.01893217116516206 0.03240469039460086 0.042527967815175156 0.0436760493232059 0.03556008705888654 0.023144329199830314 0.012103859823670564 0.005100971019254235 0.0017344616459731745 0.000475762812318577 0.00010514307420770974 1.8681368816894562e-05 2.667168221610841e-06 3.13659775167409e-07 3.9650203815622196e-08 1.4083338018143612e-08 1.1756720216623729e-08 1.1146979654327198e-08 1.065440067284812e-08 1.0177999593739659e-08 9.703825676232882e-09 9.222225766845736e-09 8.723585520623124e-09 8.197555123324732e-09 7.632538382290885e-09 7.0153585284657734e-09 6.33136794206162e-09 5.565735773042305e-09 4.707250913186613e-09 3.757065628349316e-09 2.7452030514736857e-09 1.752650330291945e-09 9.168522502995443e-10 3.6444750834428757e-10 8.900880485098163e-11 5.724225688822826e-14 5.657906561580441e-11 3.654886563952642e-05 0.00039684186221534924 0.002149586526512379 0.0073216062180885885 0.017486058615606037 0.03096636841023923 0.04200221227367908 0.04451547724754183 0.037334556448926165 0.024978632299233104 0.013398017571009266 0.005777873545973836 0.00200588881139525 0.0005606292236551525 0.0001260395129049566 2.2756018002596047e-05 3.2977683113747527e-06 3.906792478207922e-07 4.648314674894507e-08 1.3906852584001168e-08 1.1041515317594108e-08 1.0404154568008464e-08 9.908015912052996e-09 9.423266392207772e-09 8.936594892587276e-09 8.440241366586917e-09 7.926478561151414e-09 7.387011104694358e-09 6.8127910874689275e-09 6.194093216874137e-09 5.5212490277110644e-09 4.786468604903421e-09 3.987704330589168e-09 3.1356325304397054e-09 2.2642060511068247e-09 1.44111125653956e-09 7.635844957906642e-10 3.124605263227669e-10 8.014869940999877e-11 9.232648377970129e-14 4.4550165422392525e-11 2.8732477690279038e-05 0.0003192727004586543 0.001798876053112151 0.006377243191462903 0.01585281809857623 0.029204072624672686 0.04115946625847786 0.04525226249931202 0.039288905811761345 0.027145729971425902 0.01499636468042162 0.0066420934587185275 0.002361628406406258 0.0006742529138431673 0.00015450670851767303 2.8387475937850255e-05 4.181107611559531e-06 5.004272532607513e-07 5.681333272963724e-08 1.4119003703880779e-08 1.043512402711979e-08 9.73864799499355e-09 9.228258772215779e-09 8.728712900025263e-09 8.226066009105596e-09 7.714253271510788e-09 7.187366335454229e-09 6.639174489872858e-09 6.063103398019059e-09 5.452652199487453e-09 4.802354292485654e-09 4.109681743277757e-09 3.378353832615145e-09 2.6233335262708143e-09 1.8770341229745947e-09 1.1932786247949984e-09 6.401814592802689e-10 2.6919505039433947e-10 7.231599259161319e-11 1.6142099633078264e-13 3.390041457087266e-11 2.1817252823263526e-05 0.00024712870823866275 0.001455688186281472 0.005400625996173436 0.014053621731787742 0.02708990888467929 0.03990529664294695 0.045776121074112205 0.041371497654060195 0.029672213306552432 0.0169620181469353 0.007747428300326937 0.002830901730093787 0.0008278495043757631 0.00019373927942842488 3.627002447700329e-05 5.433892970846441e-06 6.583656462269482e-07 7.225879650449618e-08 1.4834604952120773e-08 9.922836937625733e-09 9.130040894339703e-09 8.59754706986008e-09 8.079394269577307e-09 7.559334341343783e-09 7.032845868980266e-09 6.4958373089181e-09 5.944046760725752e-09 5.373194120106636e-09 4.779505160806534e-09 4.160713805662761e-09 3.517768937287243e-09 2.8574082064208342e-09 2.1954290402152345e-09 1.5599657981971403e-09 9.92143760071116e-10 5.389385687635373e-10 2.3261895354337378e-10 6.534173460581696e-11 3.109207937704134e-13 2.4947171833466142e-11 1.6009536895755433e-05 0.0001830213431277507 0.0011329109851251275 0.004423808122784765 0.012124428634795249 0.024610854646295983 0.03813824600898074 0.04594114071070395 0.0434911524784161 0.032569865966700834 0.01936878023946004 0.009166093886813317 0.00345540521502622 0.0010381207828939114 0.0002486269292364543 4.747940857344061e-05 7.238259036405274e-06 8.886371685874083e-07 9.537886253901433e-08 1.6266626897820615e-08 9.508599728057107e-09 8.567417548346653e-09 8.005120666109803e-09 7.465524275543129e-09 6.927386436190295e-09 6.387551948244195e-09 5.843691724430853e-09 5.293373682916818e-09 4.734255989334828e-09 4.164608581582529e-09 3.584281680602669e-09 2.9960785847043326e-09 2.4076381841736493e-09 1.8334034966400707e-09 1.2961059810145793e-09 8.259122507272238e-10 4.5442871187556426e-10 2.012891456425955e-10 5.917067475740169e-11 6.751502243099034e-13 1.7839192259400482e-11 1.1405185246789578e-05 0.0001288371166123292 0.0008424493288049555 0.003482815778850702 0.010118837428535574 0.02177921550451295 0.03576001107638098 0.0455629014079672 0.04550208150453855 0.035821687125758485 0.02229957628204094 0.010993991893032753 0.004295322183632384 0.001330361843756081 0.0003268046242192528 6.3726929554672e-05 9.885291338922441e-06 1.229688165996737e-06 1.3023113720185625e-07 1.877114113139723e-08 9.216054058891938e-09 8.047104679797058e-09 7.4448871302932245e-09 6.8807136967517125e-09 6.323773371939343e-09 5.771914951879825e-09 5.22441927089053e-09 4.680411550961264e-09 4.138978948922827e-09 3.599641644156909e-09 3.0632334419283975e-09 2.5330052253912133e-09 2.0159097273857566e-09 1.5237453060531352e-09 1.0736098632263884e-09 6.86569220936339e-10 3.8308130034686716e-10 1.7444441689885807e-10 5.408180620116357e-11 1.7130799647692422e-12 1.255473371845578e-11 7.988341411583551e-06 8.55478190449898e-05 0.0005939058001043064 0.0026150926500754694 0.008109115680129819 0.018645189594774278 0.03269466007845861 0.04442212247193984 0.047181887681364 0.03935637975658453 0.025836286325286974 0.0133569677611853 0.005438359784199417 0.0017437803006469849 0.0004405603236696627 8.782270562881964e-05 1.3855098840348248e-05 1.7444423696729525e-06 1.8336885081227417e-07 2.2932151131048502e-08 9.098744839085466e-09 7.57566069117607e-09 6.917137850926328e-09 6.323405620780927e-09 5.746061100539831e-09 5.183004618236989e-09 4.634780512505467e-09 4.1016223654612585e-09 3.583326898423515e-09 3.0797416462094983e-09 2.5915508623413867e-09 2.1212230594107296e-09 1.673919046720297e-09 1.258108127368589e-09 8.855512369806867e-10 5.699859671642186e-10 3.238695393465941e-10 1.5305780976594307e-10 5.184677707482393e-11 5.40731197254185e-12 8.920999958996014e-12 5.6442997484467225e-06 5.311131710959892e-05 0.00039330158316340085 0.0018553649891155713 0.006183306831475619 0.015308328539673786 0.028916899438552964 0.04228233209645324 0.04821288201186766 0.043008678864090516 0.03003770348526025 0.016415502878054856 0.007012867812003515 0.002340402078158235 0.000610272466667529 0.00012454003509314464 1.9969703638875242e-05 2.5395120926346634e-06 2.6564874353013277e-07 2.972235880703838e-08 9.272391427266804e-09 7.189491673166213e-09 6.445475413730246e-09 5.8130136063514425e-09 5.21172262479533e-09 4.637288034762994e-09 4.090605932985326e-09 3.5721385206757036e-09 3.081435296297021e-09 2.6175900591364955e-09 2.1800817406629465e-09 1.7696441740306938e-09 1.388968816045856e-09 1.0430328093722466e-09 7.389053117424242e-10 4.846370742642105e-10 2.8706617603554823e-10 1.486099203971066e-10 6.449161163804527e-11 2.408756813180777e-11 6.659397103056938e-12 4.189538881781504e-06 3.052915885257838e-05 0.00024210060382589177 0.0012302057363647535 0.0044365716574688175 0.011923724160009929 0.024489858959039938 0.03893180199396394 0.048173519121367074 0.046463084506749214 0.034894520900562866 0.02036027293966302 0.009206798823666594 0.003220431517435007 0.0008708615857229003 0.00018234679205592544 2.9702279448370783e-05 3.8040558713641876e-06 3.958410150579365e-07 4.084873911987124e-08 1.0036518155824392e-08 7.071510728754747e-09 6.2083395071461075e-09 5.541901776095508e-09 4.932336478316141e-09 4.36539916300622e-09 3.837459171903496e-09 3.3457772429312577e-09 2.8876124940043498e-09 2.4607964937385254e-09 2.0642474675189428e-09 1.6982777318697786e-09 1.36468257806236e-09 1.0666334098543707e-09 8.083334141522485e-10 5.942086930038628e-10 4.2758166305041213e-10 3.088796657292618e-10 2.342124240195629e-10 1.960722929598376e-10 5.444578633774645e-12 3.410603174424396e-06 1.6077500323755027e-05 0.0001369077792742592 0.0007527194571188745 0.002955940630103286 0.00869361398669324 0.01960309645475991 0.03425859938739399 0.04656601051179314 0.049188281944292894 0.04024364121916937 0.02538646037044551 0.012289944850898656 0.0045487212242255074 0.0012845110670176509 0.00027699929282871505 4.584283567189615e-05 5.893486330072142e-06 6.082942138051104e-07 5.965716492136701e-08 1.2491152404239185e-08 8.407943812528526e-09 7.782242181112192e-09 7.633677616431265e-09 7.691658267991486e-09 7.859180372452241e-09 8.039009518786256e-09 8.137583466894364e-09 8.090668037719603e-09 7.874953519034628e-09 7.50613431809141e-09 7.0244879411521426e-09 6.47935387198932e-09 5.917199150366017e-09 5.375604467856675e-09 4.8815943684416055e-09 4.45148992015672e-09 4.092410889912442e-09 3.8039239699541816e-09 3.5795039471244413e-09 4.9646689326964595e-12 3.1036805687214216e-06 7.673263001878538e-06 7.023990930193056e-05 0.0004190727303116632 0.0018010757834221204 0.005838658259321186 0.014591228640267013 0.02835899009682161 0.04291597574145259 0.05039209944935413 0.045625409061521266 0.03161174529763339 0.016630933640437943 0.006599160984115796 0.0019660956460862797 0.00043945995032992164 7.402712721526461e-05 9.524745104676933e-06 9.709237134824766e-07 9.418333626065535e-08 2.2513931224730308e-08 2.0998360724365926e-08 2.81153399110854e-08 4.0016739054032675e-08 5.645379420643729e-08 7.636481063693805e-08 9.755501310371029e-08 1.1735642276324964e-07 1.3341829782070428e-07 1.4445920813385841e-07 1.5026998301640078e-07 1.5147179336264242e-07 1.490946515190774e-07 1.442642751697523e-07 1.3798832416442364e-07 1.3106536953935202e-07 1.2407115456746607e-07 1.1736928578493273e-07 1.1116232447956435e-07 1.0551620806503866e-07 4.903445928797139e-12 3.0635052934801305e-06 3.5278188761987103e-06 3.3991493500631765e-05 0.00021857955245208364 0.0010219289173838259 0.0036357325052749265 0.010053755954153273 0.021784182457019248 0.03698904191439793 0.04896294926344571 0.05005386583862493 0.038879340203652336 0.022670651885837712 0.009822524233053593 0.0031353663128056183 0.0007343551256364598 0.00012655725024960268 1.6274662228736922e-05 1.6313753277092005e-06 1.69850983115514e-07 8.053507167084777e-08 1.4097017902589206e-07 2.792427259580875e-07 5.228285261083904e-07 8.931362101139732e-07 1.381132509123396e-06 1.9377150277969865e-06 2.489547903774704e-06 2.9744527270373637e-06 3.3524308619741403e-06 3.6125997408176746e-06 3.7622290380856925e-06 3.8194344262903565e-06 3.8062241108536386e-06 3.7439695332726717e-06 3.6508581462864586e-06 3.5412783587301254e-06 3.425542001167113e-06 3.3102346954569025e-06 3.1993514225580672e-06 5.022913242562079e-12 3.1365127676730886e-06 1.6790997903404977e-06 1.5671129243398765e-05 0.00010792635732197645 0.0005457717723028992 0.0021190100329916924 0.006449508532569285 0.015509277396150814 0.029462697469388014 0.04398298444364339 0.0511120946800181 0.04548172862448074 0.030487682292681173 0.0150847859510585 0.005328499801440911 0.0013055406500229124 0.00023279394481634248 2.9994393773779003e-05 2.9439788875393023e-06 3.787212234788885e-07 4.783109173832738e-07 1.368926609730653e-06 3.6110353432914664e-06 8.195718821738337e-06 1.5982290821657372e-05 2.667641879282193e-05 3.897922496347572e-05 5.1160428870073655e-05 6.169253174796802e-05 7.012021153634516e-05 7.631967125690024e-05 8.047577841985099e-05 8.290691124146046e-05 8.398298392347873e-05 8.405995023760523e-05 8.344570878698837e-05 8.239211028292618e-05 8.108659535896154e-05 7.966380915612752e-05 7.820404243619395e-05 5.2330276758665095e-12 3.2660282717319782e-06 1.0021636768692168e-06 6.884735875967169e-06 5.025394678338497e-05 0.00027345725928074104 0.001152858480892756 0.0038431850558158192 0.010209236833234723 0.021611643834595823 0.0362878110549819 0.04793831357002781 0.049149451980703376 0.038563325636836614 0.022766568728521775 0.009836613070155906 0.0029955788580830938 0.000620085293053571 7.380898306408063e-05 5.844607699881691e-06 8.968183692983824e-07 2.6361987139980942e-06 1.2194967064764685e-05 4.399932245583562e-05 0.00012271715734050553 0.0002623765420589769 0.0004657615979482545 0.000680671366454156 0.0008589638747612658 0.0010048095139777774 0.0011169343273477411 0.0011993440362819503 0.0012564934027796115 0.0012933234806260588 0.0013144257705639461 0.0013238377685702088 0.0013249586515866455 0.0013204519714769358 0.0013123806119458507 0.001302163215267266 0.0012907429104485318 5.686704659490107e-12 3.5473187060194777e-06 1.018023345930227e-06 2.9935212058022215e-06 2.199105238824595e-05 0.00012795520989872152 0.0005831098299722752 0.0021196444591282675 0.006192796148947055 0.014545478071099195 0.027360580916321743 0.0409507647495639 0.04827564963976415 0.04438868354888429 0.03152244467445759 0.017047623316649337 0.0068977941653371256 0.002050653325673882 0.00042065799231087844 5.538366251740382e-05 3.7882647628686802e-06 5.6699034404761785e-06 5.981920087619975e-05 0.0003697600492467254 0.0014054923408526633 0.003652438574941396 0.005878062882188017 0.007338966096313663 0.008411754957911076 0.0091718314275582 0.009715553061673076 0.010094637697388146 0.010351592089778235 0.010517369131683722 0.010616038798031286 0.010666077964649676 0.010681712328991125 0.010673760792325347 0.010650224885439144 0.010616739722361924 0.010576909064737008 7.373937894998738e-12 4.5972944880926725e-06 1.9994939776628517e-06 1.873700786105621e-06 9.265045385268086e-06 5.568885996220755e-05 0.0002726715479268843 0.0010764286633278951 0.0034450034812753827 0.008940987123564401 0.01875887205139108 0.031659713056432205 0.04268294267627468 0.04570204744705126 0.03872333053786005 0.025876399142052694 0.01360649170534799 0.005635605749632732 0.0018229661006307406 0.00045653832769908405 8.512740742096669e-05 1.625606995457151e-05 6.283470636043819e-05 0.00043164663567634055 0.0011445274755910266 0.00011855222665188602 0.00011089256400424082 0.00014408007356593317 0.0001633457044589742 0.000182423759293446 0.00019972385724569222 0.0002160735662274321 0.00023147139559720245 0.0002459083540656003 0.0002592714018191115 0.00027132904801418313 0.0002818088688656509 0.0002903786895860747 0.0002966906587749239 0.000300434770032452 0.0003014017078602862 1.4237838217107178e-11 8.871683783678036e-06 6.320795647647727e-06 4.157403976607461e-06 5.455765232599607e-06 2.3301239050547033e-05 0.000117453582137432 0.0004999385151398678 0.001745855148371802 0.004987768530449461 0.011623641431751187 0.022012047534297006 0.03372342786681459 0.04168702780114241 0.04161085807603021 0.033649950835921726 0.02218377479091791 0.012042353241255053 0.005431754588234991 0.002055400505944151 0.0006564719489004384 0.00017961314052078982 9.288857869077407e-05 0.00039817056112444426 0.0010644101273183933 4.718427099839388e-05 4.722191777661704e-06 4.841338036341793e-06 4.964298277001324e-06 5.0890262029267e-06 5.2178654772357865e-06 5.351833800294478e-06 5.490191711729278e-06 5.631167505185372e-06 5.77171008654797e-06 5.907498397722627e-06 6.032710787200002e-06 6.140190032669991e-06 6.221160812934951e-06 6.2596033740878025e-06 1.9658995933665067e-06 3.918603647868423e-11 2.440486302321024e-05 2.3207997079125228e-05 1.711180796080762e-05 1.2253141338698652e-05 1.4835595600988242e-05 4.941182109410254e-05 0.0002121182816974641 0.0007995515167832308 0.0025037082022514308 0.0064557323659672795 0.013654700679194708 0.023627569945954274 0.033432020415901466 0.03882245883847083 0.037262927967847435 0.02987394197662291 0.020283320604927806 0.0118365032925873 0.006032299803405807 0.0027254959082266468 0.0011182239696397123 0.00045146811030298025 0.0004327877684215399 0.0009335609638754325 0.0009505486745184422 0.0009753892910415242 0.001005811127994068 0.0010402248073879113 0.0010781063689637284 0.001119324380558551 0.001164095372480741 0.0012130002519716923 0.00