# vtk DataFile Version 3.0
vtk output
ASCII
DATASET RECTILINEAR_GRID
DIMENSIONS 41 41 1
X_COORDINATES 41 double
0 1 2 3 4 5 6 7 8 9 10 11 12 13 14 15 16 17 18 19 20 21 22 23 24 25 26 27 28 29 30 31 32 33 34 35 36 37 38 39 40 
Y_COORDINATES 41 double
0 1 2 3 4 5 6 7 8 9 10 11 12 13 14 15 16 17 18 19 20 21 22 23 24 25 26 27 28 29 30 31 32 33 34 35 36 37 38 39 40 
Z_COORDINATES 1 double
0
POINT_DATA 1681
FIELD FieldData 1
Concentracao 1 1681 double
0.0 5.5886237279760504e-40 3.024755975048009e-39 1.22168082365942e-38 3.8974476719881833e-38 1.0413658126770111e-37 2.4187243703290176e-37 5.024637364170765e-37 9.544774753330994e-37 1.6865041035176162e-36 2.8089174931297417e-36 4.4554953231568936e-36 6.785287350155682e-36 9.984198518692972e-36 1.4267482912422257e-35 1.98860837915369e-35 2.721700378900758e-35 3.8039483722807825e-35 7.180682706838865e-35 3.508532095740105e-34 3.200369552687734e-33 3.0771057302857893e-32 2.7645347684801266e-31 2.297423823674051e-30 1.77238630677486e-29 1.2754325559887367e-28 8.606077604112102e-28 5.473971461488402e-27 3.301801256012027e-26 1.9029795627508e-25 1.058946662511837e-24 5.779358333743991e-24 3.174526841407313e-23 1.8365630310436995e-22 1.2178262921318307e-21 1.0800494088259284e-20 1.7041389627536646e-19 6.7868276283413326e-18 7.424980119740441e-16 1.3809888450073284e-13 4.0843841156477505e-13 1.4324567025007205e-39 6.985785248593791e-34 3.780947959984579e-33 1.5271022458296907e-32 4.8718134874329014e-32 1.301708258655143e-31 3.0234077366255647e-31 6.280801356096332e-31 1.1930977265867699e-30 2.1081316885806123e-30 3.511149659736667e-30 5.569373342320585e-30 8.481615950382704e-30 1.2480257988464671e-29 1.7834367876330677e-29 2.4857624625504918e-29 3.402128195326327e-29 4.754939058132675e-29 8.975860261296247e-29 4.385668628207227e-28 4.0004651412292206e-27 3.8463850144880576e-26 3.4556712251349266e-25 2.8717818500093938e-24 2.2154846558548816e-23 1.5942919704184768e-22 1.075760557777774e-21 6.842469758290651e-21 4.127254688525055e-20 2.3787263374037293e-19 1.3236843870864588e-18 7.224203542545518e-18 3.9681617016149486e-17 2.2957056253676555e-16 1.5222840829910805e-15 1.3500628410818192e-14 2.1301754075810434e-13 8.483541190394717e-12 9.281232477796807e-10 1.7262374372480055e-07 5.105484130420803e-07 4.290978644529821e-33 2.050888664204345e-27 6.378456551115835e-27 1.693297157179556e-26 4.0013960090020847e-26 8.519300978192656e-26 1.6538698316121553e-25 2.9657178232199404e-25 4.973687679235759e-25 7.88675833736045e-25 1.1934191968698614e-24 1.7364008106097175e-24 2.4442630934427046e-24 3.3453989851912974e-24 4.470031913192495e-24 5.850074647212946e-24 7.5192105151957e-24 9.512774063248069e-24 1.1867792350353641e-23 1.462413248104061e-23 1.7836634009059487e-23 2.1685036790492092e-23 2.737080072001626e-23 4.3849237011104287e-23 1.3465671601099704e-22 7.213120253601725e-22 4.4198041864544604e-21 2.6462580104463094e-20 1.5033232638213094e-19 8.083115135879957e-19 4.127610396743322e-18 2.0197787052150772e-17 9.67669045767451e-17 4.781146987230696e-16 2.712161190363326e-15 2.2038424531559242e-14 3.460328200589632e-13 1.491322670638327e-11 1.7511804135495237e-09 3.3906866379337177e-07 1.0185252182507203e-06 7.377306997485611e-27 3.724098007477074e-21 8.353834412119735e-21 1.603423332689843e-20 2.893664616908949e-20 4.9380598812004335e-20 7.981570370057801e-20 1.2264786325679933e-19 1.8014904192677013e-19 2.5441827231864996e-19 3.47386512077211e-19 4.608452492192025e-19 5.964777492458193e-19 7.558779611892669e-19 9.405836047114063e-19 1.152075048218664e-18 1.3917840254874683e-18 1.6610917859413323e-18 1.961320816439535e-18 2.2937175821225306e-18 2.6594212885539007e-18 3.0593940575498466e-18 3.494358612106919e-18 3.964631434141709e-18 4.470182444965378e-18 5.012369646919803e-18 5.605955105946856e-18 6.343810117037902e-18 7.70762983193796e-18 1.1920283906910063e-17 2.8251466851310825e-17 9.162295697235397e-17 3.220949357158657e-16 1.132137974686937e-15 4.437462157778112e-15 2.6209382279654072e-14 4.057782787916638e-13 1.9094758380008763e-11 2.4799115671258747e-09 5.033033471337896e-07 1.5261107326371611e-06 7.861460205097985e-21 4.1270071275838694e-15 7.395128366342286e-15 1.1215721853110744e-14 1.620563319710601e-14 2.2681380356817112e-14 3.0805468289543745e-14 4.064443947938284e-14 5.2201140749041685e-14 6.543942710198802e-14 8.030190303014008e-14 9.672284296050244e-14 1.1463598073573598e-13 1.3397784787884216e-13 1.5468789551692442e-13 1.7671014730000543e-13 1.9999217307966442e-13 2.2448326727044716e-13 2.5013320378942454e-13 2.768901114593321e-13 3.046983640592836e-13 3.334933530577643e-13 3.6319487050931105e-13 3.9369333341188915e-13 4.248261533859859e-13 4.5633682278515e-13 4.878035144006823e-13 5.185176743317282e-13 5.472821621655986e-13 5.720942572296212e-13 5.897417305255356e-13 5.950540081661228e-13 5.814165884192789e-13 5.35801695899275e-13 4.5235786986044795e-13 3.4276280200552373e-13 5.847424524276546e-13 2.204469862462666e-11 3.2124338956128456e-09 6.798030497433676e-07 2.040497877704926e-06 5.343309910387072e-15 2.9277231769606626e-09 4.153889869303398e-09 5.135154359384851e-09 6.119135128344698e-09 7.159834153354746e-09 8.256649283630866e-09 9.394160699713348e-09 1.055488571625214e-08 1.172357045094127e-08 1.2888208084668035e-08 1.403980159080371e-08 1.5171933996696427e-08 1.6279984820531148e-08 1.7360766349799098e-08 1.841199157480387e-08 1.9432016529007145e-08 2.0419582207505893e-08 2.137360265308386e-08 2.229309850946323e-08 2.3177016224722147e-08 2.4024093365684158e-08 2.483256765860875e-08 2.5599818063241335e-08 2.6321759491045512e-08 2.69917502101536e-08 2.7598786722487138e-08 2.8124449406706895e-08 2.8537672279237453e-08 2.878624590022028e-08 2.878027762823467e-08 2.8379422553065618e-08 2.728037797279e-08 2.538882634887873e-08 2.0209154294374428e-08 1.506948970067713e-08 6.244403547833417e-09 2.233383854956914e-09 4.763119578175644e-09 8.979414791188944e-07 2.5759634325285493e-06 2.013730014771313e-09 0.0012585797549418706 0.001216469320966903 0.001192459144476251 0.0011678573332149559 0.0011428530659868125 0.001117583561308648 0.0010921098342674762 0.001066399354451658 0.001040488069779136 0.0010143264655464578 0.0009879105483356515 0.0009612482528595144 0.0009342887552562134 0.0009070495095701398 0.0008795085847305589 0.0008516618377718822 0.0008234769522030785 0.0007949373699124805 0.0007660270018034177 0.0007367449118113066 0.0007070451694134955 0.000676896465013886 0.0006462820161470306 0.0006151541542240889 0.0005834336761820308 0.0005510693566457113 0.0005179464524716216 0.0004839300106592504 0.00044875656573602993 0.00041220976547616544 0.0003733632667495581 0.0003334149196908141 0.00028044022164873503 0.00028363826614927315 2.0771797319725557e-08 1.1537047705407875e-08 4.149488914256692e-09 7.1063569040076e-09 1.21749415025727e-06 3.1554483521043044e-06 6.269273443160331e-11 3.918239581146917e-05 2.5358959033932784e-05 2.4237996835969294e-05 2.308730327048195e-05 2.191668894160586e-05 2.0746425715792267e-05 1.9590700291476965e-05 1.8458704374866416e-05 1.7356662727379042e-05 1.6289228087134533e-05 1.526293222830207e-05 1.4289478647755154e-05 1.3390515662550038e-05 1.260336395518783e-05 1.1978665432222685e-05 1.1565839138566801e-05 1.1387108365330016e-05 1.140980402529864e-05 1.153972742684019e-05 1.1649725956397838e-05 1.1631135855871586e-05 1.1434853364422508e-05 1.1078010641392869e-05 1.061606955400126e-05 1.0108509875243413e-05 9.597835427305864e-06 9.106097806528868e-06 8.641658196092597e-06 8.206281889616076e-06 7.799597660953306e-06 7.420110874806214e-06 7.065686962316751e-06 6.7278219559122014e-06 1.2389190147535085e-05 2.0809633536521162e-08 1.1451210091548486e-08 4.728179196618275e-09 1.1245472894175073e-08 1.7438209072859338e-06 3.815524376245895e-06 6.336060250990182e-12 3.944106954791636e-06 2.555009294583411e-07 2.367111605482344e-07 2.53167070086323e-07 5.381186706481256e-07 2.415499324597629e-06 1.1926312576572924e-05 5.2038464209745546e-05 0.00019746037586629991 0.0006590913002792801 0.001952500119138573 0.005145837236939638 0.012032084975608091 0.024825814435437178 0.04493286448504729 0.07094984992179582 0.09727127270783469 0.11527884868893952 0.11757404538963888 0.10268456873904636 0.0763382628960011 0.04795408915386041 0.02522088128211186 0.010979072793780213 0.0039005303384984516 0.0011120020909645121 0.0002496113771161848 4.335159809892125e-05 5.828273952472359e-06 6.617960374377104e-07 9.679321729992271e-08 3.476530515903442e-08 2.3748177737496372e-08 2.0217193640697323e-08 1.9486760038808936e-08 1.7515755070085558e-08 4.3262909472343975e-08 2.3682390389126289e-07 2.651366723674651e-06 4.61055688762497e-06 5.811522005590163e-12 3.6168255424136383e-06 4.3621302739379177e-08 4.284226580386903e-08 7.801801193411532e-08 3.8681258510631954e-07 2.3183300691796693e-06 1.1988737455860749e-05 5.238053555446285e-05 0.00019711852453989286 0.0006510065871504078 0.0019097308064371587 0.00499854918371282 0.011652675515092855 0.024065500310328076 0.043743489561386247 0.06954922227503144 0.09620160738459906 0.11520998891651398 0.11890196497267316 0.10522103743591624 0.0793783905351148 0.05068992573548133 0.02716429855631744 0.012087483716676692 0.00441060410862716 0.0013015829376492288 0.00030691736197038024 5.788508087304644e-05 9.222708686600508e-06 1.5522804876931552e-06 4.163769490185208e-07 1.9327236653641375e-07 1.2522775093524805e-07 1.0061750047699741e-07 1.0865879349367019e-07 1.5318509812240904e-07 3.3337221812056733e-07 1.0646454768959967e-06 4.08142953953429e-06 5.625982209405928e-06 5.742109944129877e-12 3.5736338547614815e-06 1.0731421853963843e-08 1.2737508895150722e-08 4.864498666503477e-08 3.4593068023988905e-07 2.2044011326351564e-06 1.1525634228038029e-05 5.039173820719435e-05 0.00018891820234518203 0.0006201292983122517 0.0018081863664259758 0.004714874221735316 0.01099085398008118 0.022790894527048678 0.04175129043865942 0.06710884342347809 0.09407402716985196 0.11441413123984236 0.12015018933259577 0.1084123983117393 0.0835929580533175 0.05472690802037443 0.030187651610901294 0.013903620166248541 0.005294009021649961 0.0016515689459851836 0.0004213425125030638 9.005553010402914e-05 1.7887129993663054e-05 4.2586728088033684e-06 1.5552064275824888e-06 8.355128248094611e-07 5.814774265402782e-07 5.079635959125462e-07 5.555475408543045e-07 7.776572249000575e-07 1.338708046029062e-06 2.793989879937727e-06 6.278719203921178e-06 6.995460060820725e-06 5.754095804052543e-12 3.581311840724046e-06 3.290715169064681e-09 5.569798430377463e-09 3.7922373064309034e-08 3.0616211733922694e-07 2.002825365442929e-06 1.0592128565728455e-05 4.6583316927422177e-05 0.00017491116018033363 0.0005732261295978066 0.0016669045961549196 0.004340715291493792 0.010139422823312738 0.021158516798086183 0.03917040439531155 0.06385646919191569 0.09106396626659881 0.11296946938066635 0.12132127387353846 0.11226981236670837 0.08908880118729881 0.060289780982172934 0.0345798747750324 0.016696839412797797 0.00674496618368299 0.002274155199093657 0.0006466287272523231 0.00016238147337940134 4.083443235545523e-05 1.2669345220143432e-05 5.506045518103264e-06 3.1981148154916234e-06 2.317282241402232e-06 2.0332284030564514e-06 2.1423720915491324e-06 2.653431324497699e-06 3.810437736369734e-06 6.080999726986997e-06 9.76355606355912e-06 8.937769055956355e-06 5.795549689875346e-12 3.6074592921317927e-06 1.2821304888149127e-09 3.211390288376321e-09 3.026197765089568e-08 2.5868185965596784e-07 1.7316339999161708e-06 9.309388549252672e-06 4.1427737699909034e-05 0.0001566704308780163 0.0005150408442678844 0.0014988221919609817 0.003906845369072621 0.009159492200245293 0.019265399764862925 0.036113847980874025 0.059865110105533345 0.08712657841128905 0.11066785452125144 0.12208736269010395 0.11648196356637808 0.09572555345188662 0.06748056372254352 0.04063263402279233 0.020820168841026776 0.009064442982322191 0.003370230787766843 0.001093847571760103 0.00032874563517592187 0.00010290557414372355 3.874424546867179e-05 1.8745778752232887e-05 1.133923023476464e-05 8.234594168717958e-06 7.01584322101063e-06 6.890658161165748e-06 7.677147277746605e-06 9.456510642713615e-06 1.2388443033603109e-05 1.5652636437133346e-05 1.1822699745099339e-05 5.855909036503968e-12 3.645493377016364e-06 6.722506393371714e-10 2.0925015977403697e-09 2.3259459032602646e-08 2.0690726393933036e-07 1.4223988619765506e-06 7.819562692697547e-06 3.543162207407388e-05 0.0001357665761086605 0.00045001924908644495 0.001315644946075825 0.0034410868435815994 0.008108719141685459 0.01720870447821673 0.03270596149204548 0.055229250707007294 0.0822323200221831 0.10727610510247067 0.12202172357381004 0.1205638654335578 0.10316362065996727 0.07625495527956656 0.04860042904753203 0.026700301196358158 0.012688329794437247 0.0052787880996335015 0.001980765797916114 0.0007120420655007782 0.0002693180088593546 0.0001175536140345355 6.153843413889274e-05 3.818027327572288e-05 2.7447399990396812e-05 2.2459174900967505e-05 2.060263051389796e-05 2.0805156032894353e-05 2.2580458806901455e-05 2.526553185191565e-05 2.6443563903742292e-05 1.6305996989694826e-05 5.93299721792131e-12 3.6940616959725658e-06 4.673263321429551e-10 1.383678222278566e-09 1.6890327410228515e-08 1.560807836622403e-07 1.107736866771883e-06 6.266265701565077e-06 2.9098920256218185e-05 0.00011369673486401796 0.00038219215085138043 0.0011276368126058285 0.002968111581993201 0.007040334902781015 0.015086353117202857 0.029088287529971984 0.050090004481598206 0.0764227064042409 0.10261841907558526 0.12068234420208013 0.12390100349437268 0.1108383171744716 0.08633182722133621 0.05859178850861133 0.034761668105272786 0.0181747227142273 0.008519296842333537 0.0036994602479227434 0.001570248116022632 0.0006977041803490696 0.0003440687124218456 0.00019307775197960282 0.00012292529317755617 8.774883371419076e-05 6.93860913573938e-05 5.9988263112293796e-05 5.579531527674121e-05 5.4505833524888095e-05 5.361910028367389e-05 4.7966998265728226e-05 2.3616150378836772e-05 6.027057653603372e-12 3.7533258023261106e-06 3.9241940213685076e-10 8.804906843316642e-10 1.1486977943710876e-08 1.1061496366802975e-07 8.153085984939067e-07 4.776692673882843e-06 2.288708274985262e-05 9.181361707863088e-05 0.0003150171184629657 0.0009431092092914206 0.0025077745579775183 0.0059995814372439445 0.012989275408590042 0.025411280598757264 0.04463422114549606 0.06983170641012312 0.0966352845677228 0.11769835406171138 0.12582310907861843 0.11796890760343968 0.09711027628196482 0.07041679561789352 0.04527105675657744 0.026108721947094186 0.013781007498944566 0.00687274180540626 0.0033838988715716375 0.0017263488877091169 0.0009475189002689571 0.0005691928899907564 0.00037462938171659396 0.0002685980814232077 0.00020809407403976618 0.00017241961113916002 0.00015057543413241598 0.00013545640721198567 0.00012021994834884472 9.434985025465215e-05 3.6194028826429226e-05 6.13923847028004e-12 3.824013320743117e-06 3.650865624064598e-10 5.257468088789846e-10 7.269853819278224e-09 7.33127303687845e-08 5.647316588640149e-07 3.449746859798928e-06 1.717512641345845e-05 7.125598702798314e-05 0.0002513398459002891 0.0007684818588842992 0.0020744727600535157 0.005020242507538072 0.010993055794184574 0.021819121835041942 0.03907818515101416 0.06268739415925396 0.08942311104960465 0.11286045467403237 0.12572361707932017 0.12364618066654542 0.10765788332936473 0.08345226741542514 0.05812272254401856 0.036891815677803516 0.02179187079035542 0.01232839323726576 0.006914415080747651 0.003976526805811576 0.002403843958878208 0.0015460201906758464 0.0010603333468764953 0.0007733696216012476 0.0005965944944475711 0.0004827252354449434 0.000404399003193957 0.0003430418055663536 0.00028198753816754393 0.00019961959611718554 5.923601658477888e-05 6.271205563964102e-12 3.90717737945747e-06 3.5852354454372985e-10 2.903569742199194e-10 4.2530963136569366e-09 4.517274086448726e-08 3.660406073641043e-07 2.3477961218184604e-06 1.2236205191563135e-05 5.2910391163419865e-05 0.0001933742345274031 0.0006083322491794715 0.0016775886243146096 0.004124206986759389 0.00915199157853465 0.018432789973818916 0.033639305645615875 0.05528306567982797 0.08123802204783924 0.10618917225606146 0.12319788101030223 0.12699667787311764 0.11681504784877988 0.09660473922241213 0.07264028049226429 0.05044616704299138 0.03302742369718089 0.02089928409873293 0.013126822672339484 0.008380428229946153 0.005529459498438097 0.003802709865818289 0.00273207395524871 0.0020476940024053247 0.0015947031740128402 0.001281464357047939 0.0010500202201474537 0.0008587294875097869 0.0006703169245383609 0.0004408843413917845 0.0001046960282874095 6.425003584163299e-12 4.004108686573169e-06 3.6295832742092376e-10 1.4669354582055695e-10 2.2823949883944264e-09 2.568778440339196e-08 2.2045359832630173e-07 1.4955386132894332e-06 8.223187541410049e-06 3.7364625821577655e-05 0.00014270656412843332 0.0004658442481510415 0.0013224936944988548 0.0033223406965641076 0.007497086735302418 0.015338282271899201 0.02850673380040943 0.04793526925973708 0.07246243938711512 0.0979547451442503 0.11815650982555864 0.12738696614896852 0.12342077211353786 0.10844452823912074 0.08752397211945881 0.06595557289171385 0.04732009073815724 0.033016507796122786 0.022867022106476058 0.015987797745569417 0.011412108815459563 0.008364868650113051 0.006306931535582055 0.0048867229158011515 0.003878393178438162 0.003133745281064508 0.002549631708890931 0.0020460268695362926 0.0015489289873595216 0.0009736358100325705 0.00020249817017409607 6.6031548267344925e-12 4.116400853475847e-06 3.7427407644091373e-10 6.709635183147301e-11 1.113394355420648e-09 1.3362016805733412e-08 1.2230571986002124e-07 8.842769688715806e-07 5.171755468626053e-06 2.4910004973789586e-05 0.00010033681012996059 0.00034308335385820055 0.0010117429112899965 0.002617371373151181 0.006038241896326886 0.012580972170146414 0.023817530873676038 0.04093135839654863 0.06353624829138584 0.08863155371661183 0.11086578791771094 0.12459538863972479 0.12660137280648884 0.1175164532939061 0.1010433460733855 0.08182794290415425 0.06356375313466085 0.04822706880304664 0.03631137504939998 0.02745842673567108 0.02101241922998133 0.016332970488926422 0.012908331278613744 0.010362261004351454 0.008424645238273937 0.006898170953192482 0.0056301747496996365 0.004490622981732633 0.003351560062537962 0.0020651865108441583 0.0004334729075836081 6.808697811428246e-12 4.245972956336626e-06 3.905801031066341e-10 2.7487568395188977e-11 4.885115713761172e-10 6.290448436310435e-09 6.18482748584688e-08 4.803400001705059e-07 3.0138855766924793e-06 1.5531004968240694e-05 6.663255591947965e-05 0.00024112233056014534 0.0007463177848175156 0.0020072608562949263 0.004770229762414246 0.010169502851410788 0.019644728298136096 0.03448741955026502 0.05487680785438674 0.07880235359349891 0.1018930026604319 0.11887814663247889 0.12600859794750308 0.1227273217811602 0.11146123947961774 0.09599521671074439 0.07975708171299903 0.06493118214523899 0.052445944672330776 0.042390269341989646 0.03445500332141918 0.028222670569444372 0.02330218776444729 0.01936925226513744 0.01616322084006305 0.013469966499906621 0.011103093481432052 0.008885369972196522 0.0066280873871402855 0.0041064154567931836 0.0010230576222067223 7.0451817039406875e-12 4.39506419822248e-06 4.1110152621012897e-10 9.976076676133748e-12 1.9048347839655732e-10 2.647101417653337e-09 2.8152431015765035e-08 2.3674873489342053e-07 1.6079402985559138e-06 8.952135956459754e-06 4.1341506803366156e-05 0.00016010918958564365 0.0005262205329949272 0.0014881323717661266 0.0036794021882495466 0.008084676798731176 0.0159997721744964 0.02872458345324493 0.04680922027317246 0.06903862348156141 0.0919734812472073 0.11089919638833673 0.12190718200083442 0.12365064396912898 0.11753391669823283 0.10649370234507304 0.09349327803506825 0.08062981797120827 0.06899186553502167 0.05893107212390253 0.05040131529655849 0.043199878985779094 0.03709169884677252 0.03185483779862719 0.02728866690418911 0.023205438926591604 0.019418085569990293 0.015725520326755248 0.011894920171254049 0.007637363784909063 0.002571977414568731 7.316837615069666e-12 4.566346772448717e-06 4.3574473581751846e-10 3.1776630286306825e-12 6.515780905359721e-11 9.81972599022408e-10 1.13685566352975e-08 1.0432533718423801e-07 7.738919256415241e-07 4.702464289960127e-06 2.3639168562319944e-05 9.917971939043696e-05 0.00035059842078365687 0.0010562257544770041 0.0027505467267868533 0.006292902828875998 0.012847740685618515 0.02366955577121202 0.03952724387784876 0.05979921924707893 0.08184637162366813 0.10155131258658706 0.11507453312242079 0.1206147333663791 0.11886233886212028 0.1120729956288141 0.10273337938023873 0.09270560750921412 0.08303529413902853 0.07414811387159786 0.06612181603077572 0.05888553255284755 0.05232322997353676 0.046311745662293645 0.04072637467779888 0.0354334871046857 0.03027910569967333 0.025076467383705604 0.01959095539088233 0.01351999000968725 0.006464637248823153 7.628621958648562e-12 4.762947757584235e-06 4.6486679901167497e-10 8.884998815500474e-13 1.929730782505685e-11 3.1642594223205555e-10 4.008193744009715e-09 4.041271793311048e-08 3.302466125397572e-07 2.2124862188877974e-06 1.2248494902897931e-05 5.639854539932554e-05 0.00021746969118432798 0.0007083030946482225 0.0019713814594233088 0.004758780856960108 0.010127164339963463 0.019273420410746245 0.03308699666017937 0.051367196720230594 0.07211197477909813 0.09173869627761318 0.10656201047733226 0.11454329494268614 0.11593293791312194 0.11253461567568288 0.10647250552252718 0.09936712881879554 0.09213699322313951 0.08516475693937753 0.07853831363691305 0.07222391224343229 0.06615441869212492 0.06025968176421783 0.054468887918102366 0.04870098206826079 0.04285263552367549 0.036786631090238414 0.030318977993572655 0.023206018651370907 0.015125662548672428 7.986303246053859e-12 4.9885063436405115e-06 4.991346434450785e-10 2.285051587908739e-13 4.889350828689879e-12 8.730335604864054e-11 1.2135460260318946e-09 1.3512081058807598e-08 1.2252199635100717e-07 9.135502387012607e-07 5.633892889444941e-06 2.8853062466794236e-05 0.0001232016151167667 0.000440988472999924 0.0013342776823573965 0.0034543943802377683 0.0077718424738651235 0.015441220970809726 0.027429953570702062 0.043837521332809194 0.06314669335305564 0.082193156188209 0.0974159422111382 0.10662906948219544 0.10984092284228726 0.10862610049356897 0.10491754527200411 0.1001786373208201 0.09521199505275278 0.09032699655141935 0.08556991502797233 0.08088610127393481 0.07620070513579279 0.07144768842825813 0.06657251487313788 0.0615244049690024 0.056246557892873486 0.050665216546318184 0.04468060282135408 0.03815954407372066 0.03092519769018085 8.397167284215899e-12 5.247616212758007e-06 5.601848770150654e-10 1.022821153834354e-12 1.0921534785941754e-12 2.0373294569160718e-11 3.1072400243688574e-10 3.829248888805747e-09 3.871189602854854e-08 3.2363001788697505e-07 2.2458859456617798e-06 1.2958111730916637e-05 6.222146331576859e-05 0.00024911240028963874 0.0008352528625778737 0.002365126815033637 0.005729363544883975 0.01206496978156991 0.022421213018155185 0.03714040793123371 0.0550809278168205 0.07336867826167844 0.088453667248432 0.09798054264614439 0.1018208005206292 0.1015261862541182 0.09901680705307228 0.0957266101836525 0.09239937884729314 0.0892895106400406 0.08639510695321377 0.0836229964628364 0.08086683493705513 0.07803731370544133 0.0750683200618769 0.07191377809334953 0.06854122848812148 0.06492513211872489 0.06104011951169729 0.05685692173932269 0.05233697809142894 1.418509306670078e-11 8.861268766672613e-06 4.403227373773646e-07 2.7748665049542317e-08 1.629846933720322e-09 8.94439309024974e-11 7.626040818998326e-11 9.7497310765232e-10 1.0843679787241022e-08 1.0033740198235896e-07 7.745463620988187e-07 4.990017581179532e-06 2.7202808742335245e-05 0.0001239871572307339 0.0004702953969535012 0.0014897725784271062 0.0039748031368264745 0.009054639060868652 0.017893747922998582 0.03108517653848057 0.047821226334919274 0.06541299984148206 0.08014869260660683 0.08934412845926513 0.09277288174772388 0.09210350950763505 0.08948857726446713 0.08644240594394845 0.08374956367361744 0.08161283258755203 0.07998791828140475 0.0787369630516238 0.07772030407550004 0.07682028891070296 0.07594810768003665 0.07504316517416086 0.0740698008332183 0.07301334214276457 0.07187637857134882 0.07067538274900768 0.06943793945208468 5.848923520844941e-11 3.651585274202526e-05 5.881690450340522e-06 7.879644502630536e-07 9.615831977012014e-08 1.0983398374605058e-08 1.1989126117869297e-09 3.5577586866229493e-10 2.8907949520889715e-09 2.9424500699404005e-08 2.52090639260292e-07 1.809778321370546e-06 1.1031137863229294e-05 5.631891261937019e-05 0.0002391809910317577 0.0008454504549753016 0.0025175931262936785 0.006369444795703619 0.013697428596226472 0.02541261570097958 0.0410906416650018 0.05819425418830688 0.07261386094786476 0.0810149114019845 0.08286875221957593 0.0802525310066064 0.07574984483749916 0.07137237122250228 0.06788717445862377 0.06551294141957614 0.0640360993659087 0.06324884556703653 0.06296377368923613 0.06303322395533632 0.06334357989814864 0.06381188923126785 0.06438201810493997 0.06502055709635336 0.06571499650831332 0.06647048004539399 0.06730847344929097 2.4180884803144266e-10 0.0001508881110907512 3.836699545226168e-05 7.598368200109978e-06 1.3612537369655764e-06 2.300875478083898e-07 3.72677181605003e-08 5.8680770837623955e-09 1.5950761141398595e-09 8.246247682647148e-09 7.709563127734743e-08 6.155934675152031e-07 4.188836498284642e-06 2.393037469696407e-05 0.00011379273860724822 0.0004496709286568144 0.0014911787927392299 0.0041730415496202605 0.009823463018312665 0.019862654912042327 0.034481509674697104 0.05132665419193425 0.06570578097169756 0.07288749634246262 0.07163273625034212 0.06468439961863588 0.05595595077570252 0.048424477714934785 0.043572646490388126 0.04042652441562197 0.03851607721890389 0.03746166403392706 0.03701860377932093 0.03701308113002855 0.037322479555792626 0.03785822161800849 0.03855585940474756 0.039370923706343465 0.040274025996337635 0.04125037853820243 0.0422970597167142 7.611009918897137e-10 0.00047469109615309445 0.00016078774947642915 4.184677601402843e-05 9.827053936960444e-06 2.1821444703547327e-06 4.667625654906376e-07 9.697726200280517e-08 1.9796852663173846e-08 5.96832756214639e-09 2.2750280544329592e-08 1.9540935263968347e-07 1.481476569481002e-06 9.460438745178464e-06 5.034628199865708e-05 0.00022254970117651269 0.0008237089901275388 0.0025613721146938596 0.00664818217997376 0.014688811197957594 0.027631739279697497 0.0442538850283812 0.0590829989841388 0.06511133328274069 0.058020288691306 0.04110806704433585 0.02690053216683126 0.019974262381457768 0.016077196238420004 0.013860747795090304 0.012551902555833019 0.011802187685859094 0.011409945172416733 0.011258625990296376 0.011274173287922651 0.011407420826310872 0.01162409817479507 0.011899815676522351 0.012217311651321372 0.012565200588577694 0.012937139025612276 1.885486637284396e-09 0.001175394861950457 0.0004956518192412996 0.00015974156768045294 4.6372021498371316e-05 1.273425390039654e-05 3.3759567983826414e-06 8.724555487962695e-07 2.208988677569407e-07 5.538638210149704e-08 1.9216728257563878e-08 6.054405426818724e-08 4.852674109753337e-07 3.4555663638450658e-06 2.0565825565182738e-05 0.00010167902734353682 0.000420361374692533 0.0014556532783646956 0.004184201513781157 0.010158504233037968 0.020852899873278444 0.036200843305088486 0.05232341602577063 0.059238199436365976 0.04383740117218132 1.7398336628136917e-05 1.026836893313762e-05 9.579626558412669e-06 8.507849198501752e-06 8.060399872602816e-06 7.93346899782388e-06 8.067917393679229e-06 8.396063071195125e-06 8.876231071904018e-06 9.47423143604625e-06 1.015712659300142e-05 1.0891748761254375e-05 1.1642007046244484e-05 1.2369747851950488e-05 1.3037654764428888e-05 1.3613247120343596e-05 3.862364259858798e-09 0.002406640002335648 0.001214848857788507 0.0004671030280928741 0.0001615231434169955 5.282815381445005e-05 1.6696280467167703e-05 5.154176890925025e-06 1.563203059969376e-06 4.673929550004011e-07 1.3930390302230043e-07 5.562290819170716e-08 1.567529113978337e-07 1.158791472813683e-06 7.687098788334774e-06 4.248118780495062e-05 0.0001961365479212647 0.0007567943934240177 0.002413391352504029 0.006457550095350626 0.014503516683220157 0.027447829895291643 0.04292819477043074 0.053305221275251495 0.04331998881970559 7.800687015824931e-06 5.717022431921198e-07 5.238365063012124e-07 4.7527699014427935e-07 4.2782407968206735e-07 3.8239384343401475e-07 3.39370423274438e-07 2.988084257508494e-07 2.605441362800949e-07 2.2423393570268805e-07 1.8936070825062662e-07 1.5522286068121673e-07 1.209126574121931e-07 8.533916245234327e-08 4.7700219496591036e-08 1.1307282833464674e-08 6.795718863261399e-09 0.004232537439816413 0.0024889278118433965 0.0011118979953640455 0.0004461158233277582 0.0001692223505245305 6.205473629419e-05 2.225282372032718e-05 7.854565929622578e-06 2.7396879031630124e-06 9.468488243444354e-07 3.281075172683296e-07 1.4968044860683154e-07 3.86897948807785e-07 2.610479562610825e-06 1.604536599504572e-05 8.266037239227156e-05 0.0003551959034012113 0.0012567383050541652 0.003706889485288489 0.00912097180261091 0.018752229773730544 0.032058155364226404 0.04282232936480491 0.04174178615079758 0.04050974804767732 0.038550241186617706 0.036279967274784636 0.03387627724453098 0.03142242399529377 0.028966741528454576 0.026533067299725835 0.024128064117705687 0.021743839275413783 0.019357518296370713 0.016927650251399223 0.01438664670766957 0.011625196855228597 0.008462497821459426 0.004614141320639783 3.69918579030979e-08 1.057229735886398e-08 0.006581950021338795 0.004415127586187948 0.002244911386733314 0.001023854284340718 0.0004412597993635335 0.00018388618024690816 7.499572405937113e-05 3.014809144129668e-05 1.1999013520768142e-05 4.741990070494493e-06 1.8650803135028096e-06 7.395125812395812e-07 3.7921147457387606e-07 8.932851945141981e-07 5.436874939861579e-06 3.1011285148225905e-0