# vtk DataFile Version 3.0
vtk output
ASCII
DATASET RECTILINEAR_GRID
DIMENSIONS 41 41 1
X_COORDINATES 41 double
0 1 2 3 4 5 6 7 8 9 10 11 12 13 14 15 16 17 18 19 20 21 22 23 24 25 26 27 28 29 30 31 32 33 34 35 36 37 38 39 40 
Y_COORDINATES 41 double
0 1 2 3 4 5 6 7 8 9 10 11 12 13 14 15 16 17 18 19 20 21 22 23 24 25 26 27 28 29 30 31 32 33 34 35 36 37 38 39 40 
Z_COORDINATES 1 double
0
POINT_DATA 1681
FIELD FieldData 1
Concentracao 1 1681 double
0.0 5.461699361668287e-40 2.956358169549135e-39 1.1941756796077795e-38 3.810059425728402e-38 1.0181072287834926e-37 2.364903769896755e-37 4.913231414938081e-37 9.333884323794604e-37 1.649367560185246e-36 2.747271791413655e-36 4.3580345233421454e-36 6.63734623371061e-36 9.767200712083343e-36 1.3958085106965002e-35 1.9450066123086735e-35 2.6515252700573124e-35 3.545902088497245e-35 4.662101791601254e-35 6.037737180706427e-35 7.714059120241989e-35 9.735962809958324e-35 1.215178782633223e-34 1.5012847596554928e-34 1.8372241008128798e-34 2.2282400029809585e-34 2.679058525039137e-34 3.192941427563178e-34 3.769961642841146e-34 4.403903440074217e-34 5.077037734591507e-34 5.752528691396525e-34 6.366365863577e-34 6.826273601142339e-34 7.024805271777074e-34 6.872690625159981e-34 6.316262643965118e-34 5.611393215098509e-34 9.232560064087563e-30 2.2335327018518683e-24 2.7328662834478006e-19 1.399923862896334e-39 6.82712966378472e-34 3.6954506354725456e-33 1.4927207883821445e-32 4.7625780922199286e-32 1.2726350066141652e-31 2.956131935491349e-31 6.141543816436388e-31 1.1667364033977691e-30 2.0617109750821827e-30 3.4340924712880674e-30 5.447547250934429e-30 8.296689407377984e-30 1.2209010516336718e-29 1.74476203107983e-29 2.4312602103924542e-29 3.3144092390969105e-29 4.4323809596817627e-29 5.827631704920946e-29 7.547177513620214e-29 9.642581614361606e-29 1.216996253500808e-28 1.5189746934703113e-28 1.8766073025131287e-28 2.2965319632402006e-28 2.7853022319662012e-28 3.3488258249476294e-28 3.9911799525812553e-28 4.712455614233088e-28 5.504883659992959e-28 6.346302245277118e-28 7.190666463496427e-28 7.957963646360502e-28 8.532848827701525e-28 8.781013614526615e-28 8.590870154140601e-28 7.895334621219041e-28 7.014247021243996e-28 1.1540709192230772e-23 2.791918110847537e-18 3.416085521254177e-13 4.193525315096962e-33 2.0043105075426943e-27 6.234324660124503e-27 1.6552173772505514e-26 3.911821421630924e-26 8.329425704974711e-26 1.6171654825158253e-25 2.9001719475188354e-25 4.864208874362396e-25 7.713850826118632e-25 1.167358089364953e-24 1.698630578064765e-24 2.3913017910096477e-24 3.2731922005676608e-24 4.3739223813928956e-24 5.724775367958728e-24 7.358775801682792e-24 9.31056338434001e-24 1.1616315366632135e-23 1.4313609335104234e-23 1.7441077485381602e-23 2.1037856627171082e-23 2.5142751663396307e-23 2.9792572325836444e-23 3.5018476954331885e-23 4.084028429112634e-23 4.7254273588664303e-23 5.421226463049273e-23 6.158349686751585e-23 6.908980567556789e-23 7.620520221298751e-23 8.202738295049783e-23 8.519755057450957e-23 8.40647928605046e-23 7.747499385559939e-23 6.544339835894472e-23 4.99342669578178e-23 3.3329415211614884e-23 4.074694879162558e-23 5.527083419138501e-18 6.814970580516411e-13 7.209759493317888e-27 3.639519281086746e-21 8.165289532187879e-21 1.5674313576451145e-20 2.829048033416442e-20 4.8283518567394016e-20 7.805135246135696e-20 1.1995017327846078e-19 1.762061470193137e-19 2.4887718990247453e-19 3.398576229132487e-19 4.509060674146619e-19 5.836759413550812e-19 7.397338915920375e-19 9.205921200771495e-19 1.127707229280166e-18 1.3624886941981732e-18 1.6262969702517626e-18 1.920435257892293e-18 2.246132350146607e-18 2.604511413223202e-18 2.9965193088976768e-18 3.4228539180044677e-18 3.88373159413519e-18 4.378530933193197e-18 4.9051050348652485e-18 5.458608103729242e-18 6.029296107719724e-18 6.598733444117534e-18 7.133679545471453e-18 7.576422784094098e-18 7.834115876187982e-18 7.768088313253004e-18 7.219411340777757e-18 6.092174833568708e-18 4.590260255600074e-18 2.965412254257265e-18 1.6272244430352947e-18 6.941130089901774e-19 8.436043171863752e-18 1.0211243569116428e-12 7.682917147722758e-21 4.033277927070433e-15 7.228555967979188e-15 1.0964748400201595e-14 1.584527085878051e-14 2.218018472957217e-14 3.0129078910488927e-14 3.9757751691684116e-14 5.106971513209916e-14 6.403032160283418e-14 7.858409937726903e-14 9.466738308546182e-14 1.1221593227810342e-13 1.311681988968e-13 1.51465445776691e-13 1.7305336760027232e-13 1.9588108660562696e-13 2.1989936753513996e-13 2.450593942172812e-13 2.71310679104315e-13 2.9859897738435985e-13 3.2686112517093833e-13 3.5601847357633014e-13 3.8596321083463707e-13 4.165348117332894e-13 4.474790225829786e-13 4.783755763408288e-13 5.085129882563192e-13 5.366732767986276e-13 5.607730040439193e-13 5.773454143589656e-13 5.805595095219355e-13 5.624351864088185e-13 5.083430700955573e-13 4.113353918347534e-13 2.7051783486901974e-13 1.5655615695689961e-13 6.966253874117151e-14 2.3445579926301116e-14 4.6063284368357625e-15 1.3653032525270678e-12 5.221957180470011e-15 2.8612312165618127e-09 4.060699817936772e-09 5.020936642864528e-09 5.984196180044177e-09 7.003361490618759e-09 8.077895813544414e-09 9.192748217698174e-09 1.0330831547230788e-08 1.1477222258250097e-08 1.2620163169909858e-08 1.3750833542883295e-08 1.4862931634333334e-08 1.5951910686036003e-08 1.7014623197152056e-08 1.8048801504873665e-08 1.905280579090546e-08 2.002537207395071e-08 2.0965404038058086e-08 2.187190809810798e-08 2.274381520683336e-08 2.357984879527395e-08 2.437823681463265e-08 2.5136355827250508e-08 2.5850130901107883e-08 2.6512950571225525e-08 2.711387019844606e-08 2.763456989430044e-08 2.8044141775853223e-08 2.829062367193583e-08 2.8284601421241207e-08 2.7886613339898188e-08 2.6797072627787146e-08 2.4923213048338472e-08 1.982082372641e-08 1.4764301131750973e-08 6.107643177591e-09 2.1553215184514084e-09 5.269540595324238e-10 7.353106466609162e-11 1.7237072337552297e-12 1.9679959891089817e-09 0.0012299960236054916 0.0011895150400993463 0.0011663855713968069 0.0011427544049106787 0.001118762079301138 0.001094519734959999 0.001070073305954857 0.001045384034236157 0.001020481685282962 0.0009953158277269157 0.0009698805620258945 0.0009441820704002638 0.0009181702464127487 0.0008918608017859565 0.0008652316279069006 0.0008382777415799879 0.0008109668987865072 0.0007832819780415028 0.0007552062577763243 0.0007267376565997006 0.0006978303254440821 0.000668452389727651 0.0006385859895551377 0.0006081830223693076 0.0005771642857723587 0.0005454775026433451 0.0005130078951317321 0.00047962016165444156 0.00044505200457258475 0.0004090857497522307 0.0003708036701380953 0.0003313745250817355 0.0002790282168365265 0.00028210332418072764 2.0420590680929372e-08 1.1305335953441715e-08 4.0109437133520266e-09 1.085301639464324e-09 1.5841654331676872e-10 2.111674595835252e-12 1.0527683004236685e-10 6.579745824307958e-05 5.11865570420066e-05 4.927157393234886e-05 4.727402422445321e-05 4.52771027660124e-05 4.340666118915136e-05 4.17808651780328e-05 4.045314149743724e-05 3.9362131634971986e-05 3.8345050395233776e-05 3.7225029021371186e-05 3.5901212661455544e-05 3.437647158911128e-05 3.272176006574023e-05 3.10175860758078e-05 2.9319603353385545e-05 2.765701233275039e-05 2.6042112852646762e-05 2.447898355319154e-05 2.296876313338473e-05 2.1512036472835257e-05 2.010878275678339e-05 1.8760165637950997e-05 1.7466023891465068e-05 1.622635115714863e-05 1.5041646907733726e-05 1.3911728407762776e-05 1.283593967427241e-05 1.1812863257513903e-05 1.0841058123580144e-05 9.917597476991393e-06 9.03808510435816e-06 8.182453797524007e-06 1.3441139089905926e-05 2.0430954841476545e-08 1.1190509958441232e-08 4.5222836228406696e-09 1.231423138455488e-09 1.892565579847413e-10 2.553595464267921e-12 1.26878370774656e-11 8.191926282885323e-06 7.241262892699995e-05 0.0004998004669604177 0.002214040422492011 0.006967056460946773 0.016487515756175773 0.03036648242327556 0.044490012202408995 0.052601448818400245 0.050668274671850665 0.04000828308915413 0.02599073648774659 0.013914320740066245 0.006138665770480676 0.0022282802420753684 0.0006634445146515044 0.0001612945865012117 3.186941539026837e-05 5.137423690241046e-06 7.312089010763036e-07 1.4744280386852533e-07 7.680365251853446e-08 6.099732250093487e-08 5.1197494557035624e-08 4.3274939903934926e-08 3.67770152767774e-08 3.149547373518777e-08 2.7255402943133114e-08 2.3904101735121776e-08 2.1306864597706364e-08 1.934497230831968e-08 1.7915730861690468e-08 1.6923168256310184e-08 1.630581510357645e-08 1.5598132998470167e-08 9.991860015525945e-09 4.051068797219295e-09 1.1676414025709451e-09 1.8408315943169049e-10 3.085809446626901e-12 1.1104671217352316e-11 7.199922384425017e-06 7.098222038803868e-05 0.0004954424608737399 0.002203557156416144 0.006958137789525034 0.016525313984989597 0.030547723635121572 0.04492361571883422 0.05331436949248833 0.05154759041615353 0.04085306607113085 0.026635834192964065 0.014310703671577534 0.006335583362217007 0.0023076476518115304 0.0006893888978394842 0.0001681209484766736 3.326670892856494e-05 5.316765974210778e-06 7.022057171708523e-07 9.856718559529758e-08 3.428096877891025e-08 2.6493326456402388e-08 2.3657215713833136e-08 2.1543976471547735e-08 1.982397618564551e-08 1.8414341380290356e-08 1.7253363450950702e-08 1.628836932302419e-08 1.5472603585315107e-08 1.476043201480955e-08 1.4105161331463197e-08 1.3425862335703239e-08 1.266939732588819e-08 1.1134935352049542e-08 7.557365963652328e-09 3.3895431352396146e-09 1.0270482794615227e-09 1.7221432284359115e-10 3.765485670759107e-12 1.0314048612139377e-11 6.690325993745316e-06 6.72622292784129e-05 0.00047399297685460904 0.0021251721599994675 0.006764988128541009 0.016198374090258642 0.030188815946278577 0.04475500497459083 0.053535639487516135 0.05216011251541968 0.04164580376714218 0.027347254007427248 0.014794279055116231 0.006593695728642628 0.002417532370337935 0.0007269587171431208 0.00017846608998899123 3.554751816095343e-05 5.708814641818986e-06 7.459346835131122e-07 9.344068671539897e-08 2.5417129874457363e-08 1.8858655565007835e-08 1.740300565151665e-08 1.6423722764350166e-08 1.5603630563014402e-08 1.4894466844874336e-08 1.4264224432664476e-08 1.3684003429598004e-08 1.3124854540412303e-08 1.2554050674959503e-08 1.1926845455736571e-08 1.1176923365593576e-08 1.0158497328892137e-08 8.483428906071284e-09 5.708895700364727e-09 2.6919368548869913e-09 8.721987807263982e-10 1.5702185721999569e-10 4.68206052226707e-12 9.567001805701024e-12 6.199675867893297e-06 6.179440953688799e-05 0.00044100335999595766 0.0020017121639756144 0.006451648492833052 0.015641275606333497 0.029512034167152982 0.044283323122226506 0.0535962608571445 0.05281251834907533 0.042625993539065994 0.02828273768024574 0.015453204948396365 0.006953898049660103 0.002573691712175684 0.0007812325714496923 0.00019365104727938994 3.896426912610783e-05 6.321737450784403e-06 8.298145918055061e-07 9.916892052142151e-08 2.2644078753069087e-08 1.582392919659738e-08 1.4755763295580322e-08 1.4116036127217068e-08 1.355405323194318e-08 1.3032677544674278e-08 1.25304005232177e-08 1.2025971690324345e-08 1.1495612036706038e-08 1.0909029322805146e-08 1.0223284445882845e-08 9.369158483297005e-09 8.220958814073987e-09 6.583893579791636e-09 4.368071500678248e-09 2.1315482091238307e-09 7.286278849052924e-10 1.417611819009115e-10 5.981926857894162e-12 8.768678386688031e-12 5.6713993387893275e-06 5.502646377659216e-05 0.00039924623662143834 0.001842529093069261 0.0060389773257506114 0.014887451247588043 0.02855754633137517 0.043547556647700394 0.05353435763486192 0.0535476959959864 0.043842180892998496 0.029488849062060014 0.016323560457583798 0.00743823515040879 0.0027869356630105665 0.000856384429854965 0.0002149708191364568 4.383678978355419e-05 7.214834448706436e-06 9.58747403989871e-07 1.1217666389188731e-07 2.205481183390363e-08 1.416998345597268e-08 1.3175407485311782e-08 1.2649593531349904e-08 1.2168598673548813e-08 1.1696974958465841e-08 1.121752591409619e-08 1.0712268482540086e-08 1.0159620434560489e-08 9.531434326691173e-09 8.788311476001976e-09 7.872337457930515e-09 6.70258418571552e-09 5.198783499041221e-09 3.4020675911528055e-09 1.6994360214702483e-09 6.089158872865866e-10 1.2805814582343724e-10 7.912526801859586e-12 7.934306764645485e-12 5.117554010839003e-06 4.742812902698683e-05 0.00035130396222873947 0.0016556460729098752 0.005542516451381313 0.013955358717306392 0.027332893164299404 0.04253517322864403 0.05332548806386829 0.05435072164076269 0.04530375567051434 0.030994886885150674 0.017437257809522197 0.008070101074231057 0.003069741172684912 0.0009576224111947785 0.0002441457375243968 5.061844925833677e-05 8.483689305250313e-06 1.1479205301264779e-06 1.3351918292802464e-07 2.28836222452929e-08 1.3106971864991811e-08 1.2026043711109857e-08 1.1529478784232773e-08 1.1067044541049462e-08 1.0598746815286306e-08 1.0109472413469284e-08 9.583254908453198e-09 9.000767283591884e-09 8.337353805652965e-09 7.560904871350651e-09 6.630796315126233e-09 5.504136944182825e-09 4.164365580257297e-09 2.69549555488511e-09 1.3716346386144708e-09 5.124891783181838e-10 1.1682964849990156e-10 1.0912661280353106e-11 7.108535486080769e-12 4.568561746702283e-06 3.948556539400239e-05 0.00029986477475117337 0.001449662610168896 0.004979348331328867 0.012863137245371572 0.02583932380585619 0.041215686409814635 0.05291675900324682 0.05517814031604713 0.04700149777844499 0.03282402032816606 0.018829617950019882 0.008877973046881274 0.0034384025427766983 0.0010919939234644476 0.0002835640550048339 5.996011735768959e-05 1.0271381323756595e-05 1.4227203211025296e-06 1.6656589753640922e-07 2.5242538906108133e-08 1.2408642389591061e-08 1.1098362060963975e-08 1.0589467522142502e-08 1.0120136428191508e-08 9.638398592836933e-09 9.130072762027006e-09 8.581081985863307e-09 7.97488741263338e-09 7.291579563691793e-09 6.507833452402939e-09 5.599428551648287e-09 4.5504814181085915e-09 3.3770169005925465e-09 2.169163547911932e-09 1.1219047030784948e-09 4.362544868821106e-10 1.0873270235851502e-10 1.580447808037697e-11 6.339841808398218e-12 4.0569461570138555e-06 3.16636530481141e-05 0.0002476225256803017 0.0012336107740160847 0.004368095760522793 0.011632386229316399 0.02407933080140044 0.039550529376965474 0.05223615098367279 0.05596273714374681 0.04891045779218878 0.03499605173551963 0.02054081204159566 0.009897648578914394 0.003914389350600348 0.001269104005216252 0.0003365929964716461 7.280202660863192e-05 1.2791690103590905e-05 1.823013029581569e-06 2.1737489856112783e-07 2.9808436640042855e-08 1.206006999221872e-08 1.0318193526566135e-08 9.764394363429795e-09 9.275617169700151e-09 8.774559791574852e-09 8.246562922396784e-09 7.67938708028316e-09 7.059616949185039e-09 6.372476060544546e-09 5.603050192699982e-09 4.740089885739064e-09 3.784805334242068e-09 2.767492487173871e-09 1.769811361761173e-09 9.304074846914505e-10 3.7725719437184976e-10 1.0491650680555617e-10 2.4222048101132793e-11 5.670268632294238e-12 3.6107582807407486e-06 2.4368792526293033e-05 0.00019713304989608347 0.0010168546434487589 0.003730078709017826 0.010291432651350713 0.022062994721933755 0.0375008077163487 0.05119563307281537 0.05661175158021839 0.05098428162992161 0.037525181306469195 0.022617563603543025 0.011174266208712837 0.004526009847309905 0.0015020554777118477 0.00040793213049779455 9.049791280691824e-05 1.6363387949554865e-05 2.4112017640915583e-06 2.9624903874820556e-07 3.801979122169821e-08 1.22153283585702e-08 9.67909386063781e-09 9.03223537794312e-09 8.512855551532116e-09 7.989565877200195e-09 7.443812499100995e-09 6.864603292341861e-09 6.241447186825501e-09 5.5642880157679255e-09 4.82513345872766e-09 4.021867375455719e-09 3.165250250544935e-09 2.2895438372284198e-09 1.4630716817079243e-09 7.840790776990275e-10 3.3456980873039175e-10 1.0807135400433201e-10 3.9648357548997855e-11 5.130196257796391e-12 3.250172821153587e-06 1.7921343251538992e-05 0.00015064991271841461 0.0008085498814718738 0.0030884685662199087 0.008875296272533542 0.0198116038222197 0.0350337481161803 0.04969576274807226 0.05700429098950072 0.05315003559065563 0.04041422850003533 0.025111120540652888 0.012764091676056138 0.005310673463653235 0.0018087771661517578 0.0005042170549250029 0.00011500633699782109 2.1462598920110083e-05 3.285120302451851e-06 4.206846280135206e-07 5.2707581976232676e-08 1.3317269735319561e-08 9.256106546660664e-09 8.408032251164925e-09 7.834624345215156e-09 7.282601032586605e-09 6.719335119403405e-09 6.132732205992779e-09 5.51422611223773e-09 4.8573543049966925e-09 4.1590781802815556e-09 3.4229005911555165e-09 2.663811461900158e-09 1.9145131363592052e-09 1.229428645962714e-09 6.776015974313766e-10 3.116473437081779e-10 1.2493163249068265e-10 7.013389920935814e-11 4.735844102416605e-12 2.985853554326346e-06 1.2527321593233714e-05 0.00010993624663950834 0.0006170322685106746 0.0024675433189443336 0.007427375245817314 0.017363317426254885 0.0321309219227483 0.047630174961923115 0.056988029135360725 0.05529693996535547 0.043645697565669994 0.02807558637594903 0.014736611538772197 0.006317650695970142 0.00221390950133747 0.0006347993457466955 0.00014915941311851146 2.8798966264304746e-05 4.598176823228123e-06 6.206219728405414e-07 7.950056627439343e-08 1.6495660898782013e-08 9.330850307590215e-09 7.990966270805993e-09 7.289684403368268e-09 6.683571598532228e-09 6.093615824952147e-09 5.4981756892915245e-09 4.887321221867984e-09 4.256013938868156e-09 3.6038080842321186e-09 2.9367578631835366e-09 2.2704436733082364e-09 1.6331714804599648e-09 1.0666193863504187e-09 6.187077999588714e-10 3.2303217462651285e-10 1.7355123859018788e-10 1.3622294459322166e-10 4.489597853459506e-12 2.8191876640234524e-06 8.271645163100145e-06 7.612871910105022e-05 0.00044914875883433414 0.001891090373667348 0.0059981963232202725 0.014777422167724015 0.028799303916022062 0.044897671371377366 0.056378593889436376 0.057264599988858585 0.04716986731390657 0.031562354411881835 0.01717669075821529 0.007612270737077424 0.0027514601581774102 0.0008129740002403178 0.00019707096759973307 3.943234270236704e-05 6.590719569635403e-06 9.476913413259215e-07 1.2990375206552099e-07 2.4713477754521932e-08 1.0872169121917517e-08 8.1949423708721e-09 7.100434599489636e-09 6.333952535575328e-09 5.66760214422599e-09 5.038372169441255e-09 4.4226046209449764e-09 3.8106120728500205e-09 3.2005495908983352e-09 2.5976782742020825e-09 2.01531433945675e-09 1.475894768237933e-09 1.0099596917173382e-09 6.501283436762482e-10 4.177188018670895e-10 3.079632922747321e-10 2.973957461483537e-10 4.382653584526633e-12 2.744072196372999e-06 5.12174623201937e-06 4.9657473031865606e-05 0.0003095599599711024 0.0013802426149664745 0.004642578621461603 0.012135333635524844 0.025082443319424802 0.04141650157758481 0.054964626460744966 0.05883038844996954 0.050884617554166456 0.03561029792054175 0.02018533869586079 0.0092808415393392 0.0034688662335069305 0.0010578142846406043 0.0002647517960845809 5.4941635735925526e-05 9.637462177724095e-06 1.4912155748910551e-06 2.2809276566588137e-07 4.6122699394840195e-08 1.7371535258273543e-08 1.0841977836651418e-08 8.36386288463834e-09 6.96516397559949e-09 5.96736532372289e-09 5.154440300763435e-09 4.440337753598735e-09 3.786537004297071e-09 3.176326733953954e-09 2.605917996586396e-09 2.081238574959097e-09 1.616390163238946e-09 1.2314027551295227e-09 9.472668865840106e-10 7.772858282024895e-10 7.18595099426047e-10 7.568758471812852e-10 4.399184059738613e-12 2.7497100518964864e-06 2.949549537685028e-06 3.024923655373246e-05 0.00020025063917337074 0.0009510947172447205 0.0034150934476351764 0.009540174833306544 0.021074139126614072 0.03715029038279292 0.052521785722337344 0.05969640016595887 0.05460884331969829 0.040227907228171766 0.023879480969266727 0.01143834713641955 0.004433311540050636 0.0013971515455713877 0.0003610927098979324 7.768787434578408e-05 1.4318604931602861e-05 2.4058379960402977e-06 4.2632153347966446e-07 1.042349094498407e-07 4.2095530010474354e-08 2.4580149765143377e-08 1.721898081704106e-08 1.3160600443392859e-08 1.0524465153268138e-08 8.628613011433039e-09 7.173560159753062e-09 6.00915686696595e-09 5.053151680601472e-09 4.258955264094002e-09 3.601936293121358e-09 3.0723027014144915e-09 2.670258317711179e-09 2.4007531473209917e-09 2.267282454011819e-09 2.2664409923281924e-09 2.390810695231961e-09 4.521225646173667e-12 2.823881290520414e-06 1.5654460900946513e-06 1.704067240631231e-05 0.00012035581597366298 0.0006123992824688135 0.002363254195997626 0.007109559353787974 0.016925525476127096 0.03213745865165731 0.04884325210490669 0.05948537934348505 0.05804630911094003 0.04536089911585878 0.028384980878259244 0.014237598044411772 0.005741260972326498 0.0018725114663695535 0.0004994987855910762 0.00011122451730094991 2.152756834610963e-05 3.960077210400837e-06 8.414045765189779e-07 2.70138471916802e-07 1.3771186601913614e-07 9.242692611365875e-08 7.03616011944757e-08 5.668987476442001e-08 4.6841145041897696e-08 3.91098866999866e-08 3.279126377323211e-08 2.7567466679646493e-08 2.3266981574329227e-08 1.9768582569772533e-08 1.6968715892433367e-08 1.4774709582998029e-08 1.3105716666810806e-08 1.1893930734874818e-08 1.108321939092439e-08 1.0626485033190933e-08 1.0487427304607616e-08 4.733300779064361e-12 2.956024518483175e-06 7.583017752832445e-07 8.782586967297329e-06 6.643666500575134e-05 0.00036405235130275085 0.0015197628178441748 0.004962100825099988 0.012845135694047816 0.026528464355813804 0.04379421797734408 0.05775656027812726 0.0607419605317203 0.050839214724430974 0.0338169097843104 0.01787941160183999 0.007534318968558736 0.0025477608010505987 0.0007008517060207031 0.00016102586285454486 3.264570751993007e-05 6.626654006367536e-06 1.7475553534038525e-06 7.706776181976177e-07 5.219334226348099e-07 4.342741063337393e-07 3.9153824624549526e-07 3.620207791113341e-07 3.347338731041188e-07 3.0600167631086586e-07 2.7550240681377673e-07 2.443904485527674e-07 2.1418808044119697e-07 1.8617165819860888e-07 1.611478345293071e-07 1.3944324697581852e-07 1.2102283409112485e-07 1.0562399677515259e-07 9.285654336505499e-08 8.229360540589216e-08 7.350048847396463e-08 5.0258729950402525e-12 3.13951529597966e-06 3.3201974418723626e-07 4.093977570220447e-06 3.325857166067616e-05 0.00019709702631089934 0.0008953089550116991 0.0031965924361205497 0.009079986117417229 0.020612461289595974 0.03739341364015951 0.054062986077198776 0.06204630944124703 0.056289060336164105 0.04023177658202187 0.022621185989505098 0.010023935103641957 0.0035248684328505367 0.0009991635450417662 0.0002358608117379952 4.985543980645195e-05 1.127016484205292e-05 3.837714012443961e-06 2.3806459075647028e-06 2.138302022542118e-06 2.2042570330374195e-06 2.354196575619596e-06 2.498246884516452e-06 2.586888475207946e-06 2.597424108654904e-06 2.528377865193644e-06 2.393491755334735e-06 2.213540660723899e-06 2.009726473902648e-06 1.7995349021735558e-06 1.5952682350465255e-06 1.404289887239505e-06 1.2297973257518624e-06 1.0720609818446535e-06 9.29481042285704e-07 7.991478389002213e-07 5.397316114930346e-12 3.3729329101948155e-06 1.3029931187946797e-07 1.7062702182172672e-06 1.4900636445413982e-05 9.575447210385837e-05 0.00047543427265925607 0.001868410101252769 0.005874380629384256 0.014816368896516554 0.0299114909038639 0.04808040766987267 0.061120549053258574 0.06101007836786853 0.04752192760793988 0.028766367521938983 0.013528991058028869 0.004973145826148541 0.0014530704019200397 0.000350671721935222 7.676667522231841e-05 1.9582951244006087e-05 9.04401724985361e-06 7.979452130103403e-06 9.34280212477533e-06 1.1705582899554146e-05 1.452522957743154e-05 1.7335429797347966e-05 1.9720318176391966e-05 2.137864540815259e-05 2.219979149910048e-05 2.2228666162074503e-05 2.1611868805189718e-05 2.053127606047763e-05 1.916165130295583e-05 1.764596958123225e-05 1.6088145890557108e-05 1.455543872672038e-05 1.308332668933652e-05 1.168431247359364e-05 1.0352988247756342e-05 5.761204267092366e-12 3.59927040289347e-06 1.1040164205778439e-07 6.735544709470337e-07 6.263813331252784e-06 4.332689963719173e-05 0.00023349176141092 0.0010040879975713208 0.0034818714388642996 0.009758116654573828 0.022036296167773257 0.03983614251076015 0.05706078871261427 0.06384147950489048 0.055205505673056675 0.03659582988215793 0.018524928993946334 0.007185134779808534 0.0021704451109178123 0.0005330282595613049 0.00011975298388695532 3.515237612774305e-05 2.33330739036065e-05 2.9311689349568006e-05 4.3829232289828374e-05 6.525509022963892e-05 9.171830964231485e-05 0.00011988943499392199 0.00014573641077073442 0.00016641531589218302 0.00018047785596874558 0.0001879797237460838 0.00018976489064456863 0.00018705246877382824 0.00018110415794158564 0.00017303673867244756 0.00016373530259701136 0.0001538526444197819 0.00014381887938703288 0.00013387570968335789 0.00012413484436501104 6.146640741177867e-12 3.8381668504474305e-06 2.404165501061979e-07 2.6981669665032177e-07 2.5106345093632406e-06 1.859468411025911e-05 0.00010823229877393802 0.0005066663734967995 0.0019274957056342186 0.005970976310190571 0.015013616540153641 0.030429503696786295 0.04921655603757924 0.06250633799721256 0.06143714753366262 0.04598203164015056 0.02567698674861776 0.010679876225878977 0.0033637226202152897 0.0008386900850336703 0.00019078349133619637 6.556686391177201e-05 6.592685785397864e-05 0.0001171075234025433 0.0002192754232728906 0.0003796752400482026 0.0005849548156164037 0.0008055698171200863 0.0010102061258269461 0.0011745334786427463 0.0012947847616827258 0.0013725403631471155 0.0014137248917717115 0.0014255345779808524 0.0014152113672127107 0.001389174831422722 0.0013526635297814043 0.0013097493207574022 0.001263321326342114 0.0012153320401655345 0.00116685730962811 7.001866252818157e-12 4.36989463140343e-06 6.406601190594218e-07 2.0519626693829243e-07 9.778807130272548e-07 7.541705007927001e-06 4.718419213011117e-05 0.0002393984970062422 0.0009945283989811358 0.0033893164112758093 0.009445349871771877 0.021377509560654866 0.038936862633837506 0.056171709418018724 0.06324363333912335 0.054640834382830794 0.03534945853734456 0.016729867451452725 0.005613271638705777 0.0013929566232402859 0.00031322654879085537 0.00012133855601056167 0.00018584652953055722 0.00046536644613539283 0.0010870553062556816 0.002093967894772448 0.003448592252782477 0.004794056675542037 0.005839610726960047 0.006641185955572674 0.0072145431073528795 0.007599683279385552 0.007832989846295182 0.007948963462186676 0.007976993249555192 0.007941361985166375 0.00786158227916549 0.007752440093136959 0.007625021403710248 0.007486756579174296 0.00734238445059005 1.0523138013656577e-11 6.563796454711099e-06 2.2021453164803046e-06 7.794801617088158e-07 5.976627142919947e-07 2.9531884980984057e-06 1.9273192459964425e-05 0.00010546531406530224 0.0004765466468248671 0.0017792701935708706 0.005472246130411949 0.013772357144855233 0.028138342264351756 0.045985272078934686 0.05931317618042173 0.059526706658689296 0.04555959072268544 0.026003791342013537 0.010705088035342123 0.0030964592501995605 0.000632795334878201 0.00019127603177455991 0.0003897044735909082 0.0014476533195198716 0.00439248125673488 0.01002603561207201 0.015172220062686717 0.01825341904692005 0.020322885722957335 0.02167001394350033 0.022553260337915503 0.023108525432792574 0.023433805246404343 0.023594987168671568 0.023639459620403935 0.02360150919244094 0.02350635824983559 0.023372541410791137 0.02321343956730062 0.023038256577543895 0.022852778297626622 2.476181285283131e-11 1.5436395047501834e-05 8.966362085034671e-06 4.325612808213571e-06 2.0226561256886074e-06 1.813216430639795e-06 7.612160098291998e-06 4.316471646262111e-05 0.00021094640058217555 0.0008597237251080262 0.0029070187513896765 0.008103348613064375 0.018493148660669888 0.03409386197689084 0.05019211238041125 0.058372305688786465 0.05290343080211781 0.036844537325156655 0.019370189864577312 0.007557331843056533 0.0021387712415122592 0.0005161647599432641 0.0004556070514269944 0.001670557267587405 0.0035334238182544706 0.00011145665762967993 9.97850145327212e-05 0.00012594569532849704 0.0001396871300396948 0.00015355787187469036 0.00016621804920250745 0.0001784055887858565 0.00019010642168883028 0.0002012897154751009 0.00021182889340193103 0.0002214969730256827 0.0002300325496331978 0.00023712643683744365 0.00024245951422758534 0.0002457481497954981 0.0002467971412528624 7.341737540561873e-11 4.574470816054275e-05 3.502748565325213e-05 2.0601805381711708e-05 1.0858954660185366e-05 5.648238574029217e-06 5.033652461029408e-06 1.7263046123740553e-05 8.604050424506546e-05 0.00037987138963920913 0.0014070899927570342 0.0043286362725054464 0.010990040203893835 0.02275245929080631 0.038034313323202916 0.0509464198615388 0.05425632072420029 0.04566608717000449 0.030249548727854045 0.015765761707297023 0.0064862026211804135 0.002177201141441783 0.0009123892923558533 0.0016547089036018587 0.0033677478841180404 4.612977389037263e-05 4.500750565374761e-06 4.5540616413897624e-06 4.607682267414696e-06 4.66141962975825e-06 4.717028851450817e-06 4.775418706536288e-06 4.836319306558308e-06 4.898782361051242e-06 4.960992690737684e-06 5.020154678004492e-06 5.072051479501826e-06 5.110148814862582e-06 5.121231020548626e-06 5.044541075371461e-06 1.0157963221983168e-06 2.1393354248289824e-10 0.00013323601253142133 0.0001198906072777922 8.120060268081194e-05 4.878873793431898e-05 2.7422825063952447e-05 1.5392663600771123e-05 1.3001455189746933e-05 3.522074606683892e-05 0.00015358795764073074 0.0006157279581378152 0.002081882381462751 0.005858517261410194 0.013561062921236775 0.025603049837763615 0.039221222939739286 0.0485840107635488 0.04866188213463829 0.039581758091075774 0.02641230188045757 0.014684248324107 0.007028959593652218 0.003147994297649182 0.002321929583193647 0.0031993848849166625 0.0032682119218436843 0.0033841647892881065 0.003529139310797609 0.00369701634183643 0.0038866113803040147 0.0040987001938454955 0.004336029309637639 0.004603702316681776 0.004910419118682916 0.0052712133099078054 0.005713625268421639 0.006293153515609923 0.0