# vtk DataFile Version 3.0
vtk output
ASCII
DATASET RECTILINEAR_GRID
DIMENSIONS 41 41 1
X_COORDINATES 41 double
0 1 2 3 4 5 6 7 8 9 10 11 12 13 14 15 16 17 18 19 20 21 22 23 24 25 26 27 28 29 30 31 32 33 34 35 36 37 38 39 40 
Y_COORDINATES 41 double
0 1 2 3 4 5 6 7 8 9 10 11 12 13 14 15 16 17 18 19 20 21 22 23 24 25 26 27 28 29 30 31 32 33 34 35 36 37 38 39 40 
Z_COORDINATES 1 double
0
POINT_DATA 1681
FIELD FieldData 1
Concentracao 1 1681 double
0.0 5.4796525213566404e-40 2.966033303168897e-39 1.1980665566963563e-38 3.822421863174083e-38 1.0213976446495747e-37 2.3725180983331323e-37 4.928993231259e-37 9.363722272064625e-37 1.6546220101209462e-36 2.7559943084083434e-36 4.371825078681893e-36 6.658280215408196e-36 9.797905449751133e-36 1.400182198111978e-35 1.951081472702561e-35 2.65978012497245e-35 3.556905894484846e-35 4.676523072127331e-35 6.056353981160612e-35 7.737768773787073e-35 9.765791565914206e-35 1.2188899717417068e-34 1.50585517385096e-34 1.8427995196757155e-34 2.234980689690728e-34 2.6871374946160933e-34 3.2025399071093986e-34 3.781259453433055e-34 4.417060298285912e-34 5.092159329922632e-34 5.769610792875156e-34 6.385215415013636e-34 6.846427682460063e-34 7.045489346232196e-34 6.8928747264740885e-34 6.334774170317261e-34 8.47545122146203e-34 9.707779891773051e-29 2.03002525505983e-23 2.0830090119997587e-18 1.4045255581958157e-39 6.849571131348322e-34 3.7075445620649665e-33 1.4975843886164634e-32 4.7780311513894667e-32 1.2767480295837577e-31 2.9656498531946462e-31 6.16124610142692e-31 1.1704661496900587e-30 2.06827904235958e-30 3.444995626205524e-30 5.464785458072882e-30 8.322856905364225e-30 1.2247391468683037e-29 1.7502291447131533e-29 2.438853791959674e-29 3.324727815995687e-29 4.446135727559222e-29 5.845658319391426e-29 7.570448532804746e-29 9.672218705002615e-29 1.2207248507595988e-28 1.5236136835671053e-28 1.882320324376277e-28 2.303501242394164e-28 2.7937280970940993e-28 3.3589245449664026e-28 4.0031780615379157e-28 4.726577888143615e-28 5.521329745782974e-28 6.36520425456262e-28 7.212019106971659e-28 7.981525604359358e-28 8.558041449502761e-28 8.806868728279592e-28 8.616100300967337e-28 7.918474047670746e-28 1.0594322337611337e-27 1.2134734445858217e-22 2.5375335988500425e-17 2.6037632977626284e-12 4.2073098643387034e-33 2.010898880660178e-27 6.2547128173671184e-27 1.6606042031018463e-26 3.924493352099594e-26 8.3562881075151e-26 1.6223584027006705e-25 2.9094457214256434e-25 4.8796990960736145e-25 7.738316513333955e-25 1.1710457587370287e-24 1.7039752852332157e-24 2.3987963768966172e-24 3.2834105606621298e-24 4.3875237661161065e-24 5.742508168120263e-24 7.38148149170397e-24 9.339179997159171e-24 1.16518806598927e-23 1.4357263476574287e-23 1.7494064643973214e-23 2.11015248826432e-23 2.5218550404932734e-23 2.988204473010307e-23 3.512324173946651e-23 4.09620009093081e-23 4.7394572021978764e-23 5.437261481466327e-23 6.176496857199849e-23 6.92926430247828e-23 7.64281129936299e-23 8.226646661127843e-23 8.54450118203617e-23 8.430814941793814e-23 7.769856660941211e-23 6.563168837116584e-23 5.007753372511101e-23 3.3425456400716767e-23 2.5406970745505606e-22 5.017699503200019e-17 5.194416287997681e-12 7.233458702439171e-27 3.651482747430395e-21 8.19196044105785e-21 1.572522932881974e-20 2.8381894298099414e-20 4.843873163025146e-20 7.830098183579895e-20 1.2033187398012776e-19 1.7676405934041535e-19 2.4966127785036574e-19 3.4092304108839537e-19 4.523126281291098e-19 5.854876877989587e-19 7.420187377297204e-19 9.234215976883455e-19 1.1311562385106272e-18 1.3666352863360384e-18 1.6312221312146331e-18 1.9262226737289594e-18 2.25286812886003e-18 2.612283722619408e-18 3.005417817675688e-18 3.4329690359588753e-18 3.8951530554296594e-18 4.391345377241484e-18 4.919391654009657e-18 5.474431002819447e-18 6.046690524946877e-18 6.61768143780319e-18 7.154068807013457e-18 7.597978938490935e-18 7.856306116379992e-18 7.789996684708344e-18 7.239688306908307e-18 6.1092189294384664e-18 4.603057607853965e-18 2.973651738449313e-18 1.6317316486039897e-18 6.963414387568367e-19 7.504693743073518e-17 7.783078340425759e-12 7.708171652770745e-21 4.046535707043606e-15 7.252119201369198e-15 1.1000253253914455e-14 1.589625390818954e-14 2.225109674824435e-14 3.022478408288436e-14 3.988322034792466e-14 5.122982428862595e-14 6.422973714341554e-14 7.882721562381377e-14 9.495830339694213e-14 1.1255847383349079e-13 1.3156590748946348e-13 1.519216110685621e-13 1.735710428505414e-13 1.9646310516685735e-13 2.2054835392365516e-13 2.457777715958417e-13 2.721006708237608e-13 2.9946260277801526e-13 3.27800181125676e-13 3.570344982744044e-13 3.8705741061377414e-13 4.177079247001027e-13 4.487310726579505e-13 4.797054354553834e-13 5.099176077633529e-13 5.381463546738386e-13 5.623027151029989e-13 5.789108084503151e-13 5.821243644833022e-13 5.639426201612641e-13 5.096981171922568e-13 4.1242646416067466e-13 2.7123160697531963e-13 1.5696771452720903e-13 6.984506509652411e-14 2.350683505395922e-14 4.708355983701395e-15 1.0406432906376967e-11 5.239122245385972e-15 2.8706363516500744e-09 4.073882961854707e-09 5.0370958240284725e-09 6.003288521116782e-09 7.025502497933827e-09 8.103191779731127e-09 9.221253245567626e-09 1.036254375412714e-08 1.1512092980324208e-08 1.2658108371970434e-08 1.3791744192167839e-08 1.4906682337838102e-08 1.599836556223662e-08 1.7063640615033052e-08 1.8100237032755908e-08 1.9106514341115247e-08 2.008120918298531e-08 2.1023226605013623e-08 2.193157488561369e-08 2.280518692469028e-08 2.364278771562855e-08 2.4442605767191012e-08 2.5202016380564513e-08 2.591694004550868e-08 2.658075483060998e-08 2.7182495654285422e-08 2.7703805077946485e-08 2.811370856697858e-08 2.8360128880656067e-08 2.8353450765948816e-08 2.7953898666846706e-08 2.6861198974731203e-08 2.4982415215752465e-08 1.9867571074828808e-08 1.4799122964795283e-08 6.122048288107447e-09 2.1604049721763115e-09 5.281969291338593e-10 7.370461588294074e-11 1.3137412118654104e-11 1.974464962141675e-09 0.0012340391268430854 0.0011933286128558104 0.0011700750056165984 0.0011463070777409119 0.0011221721644705334 0.001097785061478383 0.0010731938171292584 0.0010483605458213522 0.0010233158831079402 0.0009980095284584617 0.0009724358537014585 0.0009466012905511418 0.0009204556322628003 0.0008940148363148871 0.000867256818903364 0.0008401767155860619 0.0008127422727316836 0.0007849364495161149 0.0007567426152118474 0.0007281588521531434 0.0006991393016608485 0.0006696521710728359 0.0006396797551308579 0.0006091740148607125 0.0005780557497661894 0.000546272833792964 0.0005137104960222854 0.0004802334862456987 0.0004455793428530872 0.00040953058099028926 0.0003711682507904816 0.0003316652470742686 0.0002792295152387851 0.00028232207714677914 2.045980003937204e-08 1.13287494617234e-08 4.019744732627017e-09 1.0877558427870522e-09 1.5878149368126657e-10 1.6093002578252427e-11 9.931456060456948e-11 6.207103933463087e-05 4.7567878993317186e-05 4.5759696160048994e-05 4.386485082402674e-05 4.193943638091655e-05 4.0076142630176184e-05 3.8381468018816096e-05 3.694966534440752e-05 3.580987850189518e-05 3.488528394477837e-05 3.401603028077704e-05 3.303809960379301e-05 3.186179611038316e-05 3.0495613582989615e-05 2.9007587299600975e-05 2.7472274476497534e-05 2.5942880209476707e-05 2.444769913365545e-05 2.299824438630962e-05 2.159821900667533e-05 2.0248829226446948e-05 1.895014451085798e-05 1.7703193853070372e-05 1.6507763105894365e-05 1.5363777007125198e-05 1.4271623698425706e-05 1.3231064331551958e-05 1.2241427011212829e-05 1.1301344824325678e-05 1.0409432867794734e-05 9.562948072665855e-06 8.757812309049543e-06 7.97559013945517e-06 1.3291479859387313e-05 2.0470069713564774e-08 1.1213693914193114e-08 4.532109312021845e-09 1.2341908127286676e-09 1.8969064311790822e-10 1.945963902834466e-11 7.395742825512835e-12 4.700736124789295e-06 2.4204098650688842e-05 0.0001882296157041997 0.000961865646571542 0.0035143659758081597 0.009703795353659467 0.020949128017779844 0.036139914810872496 0.050541835748680985 0.05785340565510181 0.05454548355187272 0.04252152932282567 0.027460709215023547 0.014695911105698976 0.006509376479795102 0.0023799511755468513 0.000715197570367032 0.00017562117379236867 3.4998699861470615e-05 5.652022136178743e-06 7.802612740679437e-07 1.3714340284626212e-07 6.34043643742324e-08 4.969807679549104e-08 4.1991025441536696e-08 3.584913098084116e-08 3.085065570382913e-08 2.6825958207427296e-08 2.3634471273423754e-08 2.115217641845742e-08 1.926959759662545e-08 1.789195947807339e-08 1.693032138163501e-08 1.6328583258863744e-08 1.562875671212904e-08 1.0012633106311471e-08 4.059890099536906e-09 1.1703122154441446e-09 1.8518489347437368e-10 2.3514548461956794e-11 6.0242416782987364e-12 3.842998826027507e-06 2.3250669141270184e-05 0.00018544605824300168 0.000952393341493713 0.0034915178107118674 0.009674330546989074 0.02096275194615153 0.036304944633406 0.050977482452482036 0.058591889508707536 0.05546951833379888 0.04341985576176854 0.028156067127272425 0.01512946857188428 0.0067286940951053476 0.0024702395266332157 0.0007454191160459915 0.00018378912447699377 3.674032590339118e-05 5.910725858774591e-06 7.750216862704881e-07 1.01470121564968e-07 3.1095291011553845e-08 2.3559065802011413e-08 2.1284658020102774e-08 1.9638413538895215e-08 1.82922655857756e-08 1.717880712783984e-08 1.6248606497542444e-08 1.5457682497943e-08 1.476261989268891e-08 1.4118415980154938e-08 1.3445687936296068e-08 1.269194528294209e-08 1.1157382146081916e-08 7.573253227492217e-09 3.3970571627533013e-09 1.029841417595344e-09 1.753423127906335e-10 2.869346212390442e-11 5.573748472025931e-12 3.556006934912183e-06 2.1790610804801157e-05 0.00017598013642678977 0.0009109692636925876 0.0033660129005134527 0.009402587895913857 0.020543340328168735 0.035875972121483385 0.0507951839689222 0.05886182915961938 0.05617333383561859 0.04431594006463629 0.02895708788932567 0.01567699565230406 0.007024236608897925 0.002598043758155477 0.0007900165661412393 0.00019634872972733937 3.958067228089077e-05 6.416736077167954e-06 8.388415413528072e-07 1.009188747487355e-07 2.4496856913069543e-08 1.7609018707311443e-08 1.635546032352081e-08 1.5552907455936836e-08 1.4866034055570328e-08 1.4252497357499815e-08 1.3684382607442915e-08 1.3133754840475509e-08 1.2568656665260924e-08 1.1944914325768252e-08 1.1196599694123854e-08 1.0178068133865857e-08 8.50097793972064e-09 5.721275269769276e-09 2.6984959282891275e-09 8.759737697916174e-10 1.6384104925872644e-10 3.5678056581409945e-11 5.286449410362601e-12 3.3680944715339174e-06 1.9780138621945845e-05 0.00016187282643818308 0.0008480246913145285 0.0031719392728576335 0.00897117456618188 0.01984764741141381 0.03509538650283034 0.05030297005823078 0.05899328199403719 0.056956766320745277 0.04544259813300882 0.03001908703420832 0.016426057329309816 0.007437686809105827 0.0027802419137771144 0.0008546944923247668 0.00021489332141660862 4.38663902497667e-05 7.207718505362138e-06 9.519525855969314e-07 1.1095434686203436e-07 2.2721536046512952e-08 1.5123370282235297e-08 1.411137467806431e-08 1.3545201965979168e-08 1.3032699533022096e-08 1.2537339429041007e-08 1.2037854099161333e-08 1.151083601153916e-08 1.092628218083203e-08 1.0241447543634794e-08 9.387205927688965e-09 8.237816950133002e-09 6.598286899524002e-09 4.378537003628721e-09 2.138366732250951e-09 7.349363839172352e-10 1.5435990483918556e-10 4.558413140759858e-11 5.038949557054969e-12 3.2032295898527167e-06 1.735479075699383e-05 0.00014436944067043855 0.0007686735207387252 0.0029230816549720277 0.008406704714101569 0.018913265769756195 0.03400235450307496 0.049534655396961454 0.059017299745210146 0.05785675400315018 0.04684524182923296 0.03138916974465584 0.017415064715052973 0.007993910085025271 0.003029431809548891 0.0009445830597720439 0.00024110746703551192 5.004199404366927e-05 8.376664859106313e-06 1.126986567549167e-06 1.3019117265683762e-07 2.2987651370295198e-08 1.3718111578010621e-08 1.2680404549725084e-08 1.2178985382875442e-08 1.1709502855124435e-08 1.123240941423093e-08 1.07288343780724e-08 1.0177187079670725e-08 9.549364380817593e-09 8.805997332570268e-09 7.889165716111776e-09 6.717897211764828e-09 5.211903718531837e-09 3.412609414872505e-09 1.7085123713398175e-09 6.202338872631596e-10 1.4958124924093484e-10 6.029769610953963e-11 4.810373548642068e-12 3.049354263455572e-06 1.468962955918365e-05 0.00012469104706983695 0.0006776365320540755 0.0026313086379244227 0.007729246082711492 0.01775989912264366 0.03260093387562397 0.04847005864975683 0.058900487216392544 0.05885201854489183 0.04853136005065505 0.03309705517000703 0.018679109367261106 0.00871933689558795 0.003360564798843151 0.0010662626056416994 0.00027729266413745803 5.875749059043004e-05 1.0070898038916747e-05 1.3904440359177899e-06 1.618376870076629e-07 2.5037590356852844e-08 1.2843125129184283e-08 1.1598831003082552e-08 1.1093565249904513e-08 1.0621279828564338e-08 1.0130818420546407e-08 9.603927886212826e-09 9.020837462594515e-09 8.356712600265015e-09 7.579356823644318e-09 6.64810574131633e-09 5.520084057083761e-09 4.178895732936909e-09 2.709124249221769e-09 1.3863805877127847e-09 5.330152724308086e-10 1.525536624577042e-10 8.316331423201473e-11 4.60608173925588e-12 2.91075283387474e-06 1.1967724481625209e-05 0.00010408290761835075 0.0005798845302633822 0.002309607161980928 0.006960298594041448 0.01640728904476307 0.030887841989377482 0.047068692279057134 0.058579404997294825 0.05989101369951444 0.05048802823849052 0.03516702421381631 0.020256522320942154 0.009646493722429489 0.0037930665816593608 0.0012286043060793944 0.0003266796086938042 7.096259505182463e-05 1.2518913305968718e-05 1.7870411765733353e-06 2.1289716476438404e-07 2.9612148499863975e-08 1.242108218894481e-08 1.0729024703129523e-08 1.0173063448397813e-08 9.677196304053126e-09 9.162645362804962e-09 8.609910762039818e-09 8.001173345783471e-09 7.315973843463194e-09 6.530727380051084e-09 5.621125505297247e-09 4.5713611091756665e-09 3.3977868537943026e-09 2.191334608147012e-09 1.1486513133284176e-09 4.736724582040913e-10 1.6823069590095726e-10 1.2044744834736225e-10 4.437721739192957e-12 2.7954863543846296e-06 9.357222075075767e-06 8.373154799128652e-05 0.00048038463357083836 0.0019715326993743594 0.006124158415786743 0.014879743210578491 0.028861299741138352 0.045282302630256496 0.057969499542490095 0.06089657089557726 0.05268419953954244 0.03761778324993906 0.022190642892929748 0.010815658783298631 0.004352283964978431 0.0014437177390661568 0.0003938258795578944 8.805211328737239e-05 1.607270978270524e-05 2.3908015777571307e-06 2.964307105461936e-07 3.864725913104083e-08 1.2675435225261925e-08 1.0067144308279722e-08 9.389258869126865e-09 8.850559841633904e-09 8.305738954376185e-09 7.728705402676721e-09 7.10265771000204e-09 6.411418818117139e-09 5.639418674920873e-09 4.775163832353443e-09 3.819949642469765e-09 2.804543212593627e-09 1.8116537260228946e-09 9.819043333454637e-10 4.466875509835959e-10 2.0663507329647473e-10 1.846050957373669e-10 4.3164343296405035e-12 2.7110898004931113e-06 6.9951036256594915e-06 6.468425210815685e-05 0.0003839182971693715 0.0016313531208250152 0.005248941069211609 0.01320981547728717 0.026528521544417837 0.043061266202614495 0.05696918796493353 0.061763806438995573 0.05506644295692012 0.04046095000884842 0.024529740001240027 0.012276252072602566 0.005071054450656328 0.0017278544135174592 0.00048510830314948603 0.0001120663122351175 2.127673347371931e-05 3.325329999371772e-06 4.3682769461151525e-07 5.6488473681551e-08 1.4368169032580255e-08 9.769397231726043e-09 8.787967936948018e-09 8.161285610991064e-09 7.57137642417082e-09 6.9673546253349475e-09 6.328911979316048e-09 5.6422301838577465e-09 4.897597063451252e-09 4.0921650041657e-09 3.236627863656077e-09 2.3658065598021972e-09 1.5493650579928344e-09 8.880080175101645e-10 4.679454755676313e-10 2.899242500124663e-10 3.0218381102438037e-10 4.25019731323401e-12 2.662877353509416e-06 4.977504446460708e-06 4.7773379240875484e-05 0.00029472595517864616 0.0013030925143777505 0.004365253496089683 0.011439105135004821 0.023910890483823076 0.0403637728538914 0.05546438394750126 0.0623576499504345 0.05755090207173472 0.043693433106418 0.02732499393905665 0.014088308488339365 0.00599169350180048 0.0021029308465336473 0.0006094338826331169 0.0001459783774491831 2.8972179912339085e-05 4.798570083749568e-06 6.806061650138922e-07 9.307269378903574e-08 1.9730754524550647e-08 1.0444353956399518e-08 8.597189887555961e-09 7.726778530981323e-09 7.03502353208201e-09 6.380687826669446e-09 5.72189845154476e-09 5.040292950725474e-09 4.3276901559378e-09 3.5852773906487147e-09 2.8272927500687727e-09 2.0868650111140706e-09 1.4200512869008295e-09 8.990678958683714e-10 5.81928507768562e-10 4.71037304927063e-10 5.345449910821735e-10 4.242977080067948e-12 2.6534086702974756e-06 3.352910241793986e-06 3.3551083394817044e-05 0.00021619000579285388 0.0009997406402232878 0.0035058070142645016 0.00961971407960345 0.021049034226433692 0.037162723963377754 0.05333366668746177 0.06250978723983557 0.060013578018068864 0.04728941012093401 0.030627026363285088 0.0163232036317409 0.007168385921087458 0.0025981639020462946 0.0007791329657151325 0.000194079585188286 4.04503262898719e-05 7.161177243021365e-06 1.1181157901378142e-06 1.7193441307557257e-07 3.547173004317075e-08 1.435667158066227e-08 9.763935724798266e-09 8.036986211140248e-09 6.999930132966259e-09 6.182996026626941e-09 5.44701220751741e-09 4.7404776559543064e-09 4.043530806850995e-09 3.3534243750309563e-09 2.6819523585203228e-09 2.0566185483074816e-09 1.5206541436181409e-09 1.1260155454479397e-09 9.135260665666606e-10 8.891033606992915e-10 1.0382784383880722e-09 4.2952176909551365e-12 2.6828337247768617e-06 2.1244763137830774e-06 2.226179656803949e-05 0.00015056942459723902 0.0007321725635697559 0.0027031479435697665 0.007813581734027067 0.018008318574631987 0.03346057949056445 0.050461036020831754 0.062019317319907306 0.062279711287075025 0.05118692525291734 0.034480080329529414 0.019064797495435316 0.00866999104638222 0.0032524937419405454 0.0010111994732536409 0.000262519294848284 5.7672510744265416e-05 1.100178520097808e-05 1.926735530231982e-06 3.5029444482372686e-07 8.241421713777641e-08 3.026988792269939e-08 1.6539505077234796e-08 1.143237808418501e-08 8.906129559900799e-09 7.350847713886634e-09 6.2237449703194045e-09 5.310250405441313e-09 4.518140764505429e-09 3.809737004853013e-09 3.1774509072723874e-09 2.6343993236240646e-09 2.2089769285368595e-09 1.9373370067528764e-09 1.85003384646094e-09 1.9587615468618216e-09 2.2667439162587734e-09 4.405071386365272e-12 2.7497296433886557e-06 1.2568408222939446e-06 1.3850448007770162e-05 9.881636316244899e-05 0.0005080665260199425 0.0019867528515700897 0.006088681414867798 0.014880648068447862 0.029299579782881807 0.046752065610897474 0.06065742275460409 0.0641107754814095 0.055269837966101965 0.038910961648843834 0.022408267692041642 0.010583930619072748 0.004117786666645147 0.0013289626714105835 0.00035999283306357706 8.356665278905525e-05 1.729435007417879e-05 3.4542412903283692e-06 7.688858231516519e-07 2.2611494385657402e-07 9.280644056929387e-08 4.9084036943470695e-08 3.053566509029098e-08 2.11162339226832e-08 1.5697187631534717e-08 1.2276574146777627e-08 9.955760402332287e-09 8.291420576475392e-09 7.053288338209589e-09 6.121992579286428e-09 5.441698649476687e-09 4.995551163241655e-09 4.78956956940391e-09 4.8388498131855175e-09 5.15819706050212e-09 5.768639448334825e-09 4.569986544492372e-12 2.8521717184550508e-06 6.884572718801279e-07 8.009548715774609e-06 6.056702543816501e-05 0.0003310875290300137 0.0013798591176125417 0.0045141697183329705 0.011784966696219841 0.024777924574538125 0.04215833857351828 0.058181969903796656 0.0651941635682814 0.05934321614855307 0.04391307059133516 0.026458863134384693 0.013021587589919522 0.005263733891916873 0.0017645550068292892 0.0004987041270790359 0.00012240981233307166 2.7614539360136147e-05 6.375698057414316e-06 1.773673664263255e-06 6.725883368085931e-07 3.3820601165729253e-07 2.0361867052679055e-07 1.359857579516525e-07 9.665679877013143e-08 7.158232732958381e-08 5.465895261134463e-08 4.2841666592683565e-08 3.4431777438226344e-08 2.839653153555849e-08 2.4075391335361316e-08 2.103519502575301e-08 1.8993676417445362e-08 1.7771698020964494e-08 1.7262340966094868e-08 1.7408779096101476e-08 1.8200596247124763e-08 4.788425035498978e-12 2.988883919830459e-06 3.4601011383603624e-07 4.262638199250714e-06 3.431527844576125e-05 0.0002005034893221077 0.0008961748207024929 0.003151987568912266 0.008859151721036258 0.02005768619847695 0.03671013675745694 0.054367725934888186 0.06513871928928201 0.06310012830782886 0.04941718548107726 0.031324787569870255 0.016124624345146048 0.006785394306845439 0.002362757127346194 0.00069570815946398 0.00018031339915779672 4.4444105583803395e-05 1.1984195585549806e-05 4.2116511459499525e-06 2.0638491172128545e-06 1.293239272810122e-06 9.286823923115605e-07 7.143102894716402e-07 5.678838440463509e-07 4.5820685291730925e-07 3.720099514525732e-07 3.0302299831878317e-07 2.477536432016772e-07 2.037889186270157e-07 1.6916688685217211e-07 1.4219003024905983e-07 1.2139274258943487e-07 1.0554575146081192e-07 9.364822988515976e-08 8.490368957258415e-08 7.870078904050613e-08 5.061278120884653e-12 3.1601748672992773e-06 1.5808794921919686e-07 2.065180800026395e-06 1.7763810670618246e-05 0.00011148014896887728 0.0005375812348932709 0.002047265017457681 0.006246053392748832 0.015367922434209468 0.030554596214505746 0.04905820849240655 0.06348801966199781 0.06608285338379741 0.05524398601992256 0.03709982302086395 0.020074217609691934 0.008815659026837385 0.0031878191691628107 0.0009752370594305588 0.00026590041080450094 7.159871864379295e-05 2.2741100645172404e-05 1.0163904293231334e-05 6.394362323625746e-06 4.959931389226325e-06 4.248839169484582e-06 3.785862905521376e-06 3.4043740804989163e-06 3.044012252576424e-06 2.6895679062141662e-06 2.345120657801977e-06 2.020597606790272e-06 1.724832867204022e-06 1.4629720586911944e-06 1.2361356858520896e-06 1.04237970836969e-06 8.778561594288403e-07 7.376887120749876e-07 6.167503697949142e-07 5.098842885556437e-07 5.392901408751404e-12 3.3686101883295334e-06 6.515344526852054e-08 9.004778870674272e-07 8.296782824116509e-06 5.613895359080805e-05 0.0002936086839408246 0.0012188769061932062 0.004069815422568386 0.010987013836302703 0.02398821034134026 0.04224585496395031 0.05977031725716943 0.06764455911576932 0.061027926952636924 0.0438257465084527 0.025098747325797456 0.011546106081579877 0.004336045147983518 0.0013730420703742603 0.0003914392075722758 0.0001148954451887405 4.3401292928328695e-05 2.4866813126017824e-05 1.9942842532277388e-05 1.8917367019083753e-05 1.9084941281942733e-05 1.94536400705791e-05 1.9557388779838695e-05 1.9199739900148786e-05 1.835773483654579e-05 1.7119499749261677e-05 1.562082383373056e-05 1.3998826596748555e-05 1.2364465024720842e-05 1.0793425371407846e-05 9.328295315197085e-06 7.983970565439514e-06 6.755941390973158e-06 5.627272217990832e-06 4.572282196706977e-06 5.791829580017152e-12 3.6194585272992324e-06 2.4191675725594824e-08 3.4936153957019126e-07 3.451000541893522e-06 2.52355302198819e-05 0.00014370607876151747 0.0006540142008071759 0.0024080761026137325 0.007201148763815494 0.0174632673837225 0.03417570169573465 0.053614384480747866 0.0669427572675349 0.06610262290013802 0.05140449914386885 0.03147094503382185 0.01526012695472666 0.005960085422852064 0.0019455289267762328 0.0005751380734030708 0.00018335058013514303 8.357532080772965e-05 6.217264321762238e-05 6.324480189313868e-05 7.237213574280747e-05 8.45604270931187e-05 9.67436397696388e-05 0.00010669325538585107 0.0001129719313656506 0.00011515510622033906 0.0001135649682112905 0.00010897528516305522 0.00010228808391182803 9.43406439928447e-05 8.579984506523904e-05 7.713660639160986e-05 6.864268240974752e-05 6.045697647735831e-05 5.2608264283744034e-05 4.5040115324011194e-05 6.17981252196647e-12 3.860792406582426e-06 7.544265535594731e-08 1.2987107274123436e-07 1.347773416057579e-06 1.0574045721423517e-05 6.508605301704469e-05 0.00032253766821904874 0.0013027595565125287 0.004304973283857796 0.011617533325915561 0.025458201530154986 0.04496078272450374 0.0630294666791419 0.06935988939218761 0.05941881380028019 0.03946317832283783 0.020382449620401658 0.008316363115288938 0.002789665836265547 0.0008462406834244129 0.0002914765092874925 0.0001639449123352157 0.00016141643857582968 0.00020746093156897978 0.0002822517424860566 0.00037396883668779784 0.0004690870390869165 0.0005532369061090323 0.000617366999044651 0.0006575450471425895 0.0006748830629879208 0.000672873612408981 0.0006559819918350047 0.0006285951492126972 0.0005944720201354493 0.0005565157008771793 0.000516811021631225 0.00047668007266827396 0.00043681061100349757 0.0003974499702620431 6.688034102483351e-12 4.176216117557374e-06 2.623291124438576e-07 6.732834668621574e-08 5.051558457475525e-07 4.214656176236422e-06 2.7926797587078302e-05 0.0001500224319703469 0.0006614723594528529 0.002402886299491673 0.007178873371462672 0.01753662773348029 0.03477665833076085 0.05507262430149393 0.06867687692917042 0.06652100614369365 0.049177090454370936 0.027529031318324827 0.011856783125791907 0.004087949548819838 0.0012567291733670942 0.00046227692394865003 0.00032970737939060454 0.000438945187543911 0.0007091361031198503 0.0011280106607844968 0.0016469794644499189 0.002184617047368996 0.002665877710902842 0.0030368892066887586 0.003294885934443062 0.0034484658185564366 0.003514779412922358 0.003512500558303328 0.0034593832610616444 0.003370631489924715 0.0032583524293695893 0.003131763595665463 0.0029972648719314315 0.0028590478188067502 0.0027192896593727484 8.366353484386558e-12 5.221367408874373e-06 9.040663314024743e-07 2.058664743122104e-07 2.2324881782922327e-07 1.6003076167553681e-06 1.1304793818405424e-05 6.558530013043335e-05 0.0003144070652143727 0.0012500195265047708 0.004115309939295768 0.011155836482151607 0.024742363346592827 0.04416870140036765 0.06254596362275626 0.06922850164687352 0.05868242007550622 0.03730375970438209 0.017520060614564105 0.006215052814557571 0.0019093767559419982 0.0007230879644681625 0.0006533508025878567 0.0011904719952756746 0.0024076529059770843 0.0042920564723147436 0.006706699874464493 0.009014864718867898 0.010736768936552153 0.01200545992973527 0.012873804089121543 0.013424356234559991 0.013725918224329793 0.013839082762999902 0.01381316168872435 0.013687592883833649 0.0134933378665008 0.013253476715976096 0.012985054043584692 0.012699324746785076 0.012403268676080829 1.5828804412805344e-11 9.87283807466225e-06 3.824399633562089e-06 1.3734475076292886e-06 5.279191042137925e-07 7.169725822967723e-07 4.337191616847448e-06 2.6824947496336214e-05 0.00013930449375160954 0.0006039600070826211 0.0021823504464273287 0.006537342602507134 0.016146449790426627 0.032373432302534866 0.051957262589354694 0.06584303012699927 0.06469242824947691 0.04824062675224627 0.0267165589076834 0.010792166029247704 0.0032654114389705446 0.0010794164902808297 0.0010857239695780652 0.002676065171005892 0.00683041936197266 0.014165581270944597 0.020505489316897024 0.024054119140495447 0.02628109006166269 0.027637123271150393 0.02846427978965855 0.028937329314741075 0.02917245617786042 0.029243426573626587 0.0292003975325702 0.029078087991905026 0.028901190842307425 0.02868741139623318 0.028449324112338224 0.02819542696368506 0.027930954030838454 4.438296825894549e-11 2.76676300986503e-05 1.6499680940189813e-05 7.821017261821536e-06 3.372324972001628e-06 1.53770233460268e-06 2.034402070199534e-06 1.0370175380759398e-05 5.724599056268625e-05 0.0002696005089987566 0.0010655847537111261 0.00351422507128249 0.009626497381725852 0.02158758806009886 0.0391178149021161 0.05660244996914464 0.06446504882948823 0.056848664376315555 0.03821317152009732 0.01924637790725801 0.007196221705167617 0.0022604640447258717 0.001361335999659145 0.003080491335290371 0.005496124636586877 0.00010690502839242606 9.307660825651813e-05 0.000115329036381484 0.00012616803126570475 0.00013735900626074367 0.0001476754209275801 0.00015778069120652734 0.0001676425502014441 0.00017721277931255825 0.00018635630429806671 0.00019484968569253577 0.00020243962007969473 0.0002088316790446877 0.00021372415983706363 0.00021684881240564773 0.00021801820979556045 1.3458158246677234e-10 8.385456917854658e-05 6.256932022048829e-05 3.5518815277240386e-05 1.7978514272299096e-05 8.559406435296026e-06 4.3302845936385716e-06 5.224622491903275e-06 2.226505014989558e-05 0.00011060210201057687 0.0004758907661273078 0.00172218785754821 0.00521299779377706 0.013021377574969508 0.026521795825324733 0.04360995394716917 0.05728099647265851 0.05946286088644406 0.04842181250661742 0.030750119105726403 0.015246368642081233 0.006118382723477069 0.002692725510485039 0.0032541650654642645 0.005362588216580907 4.535928253883276e-05 4.3898206950448784e-06 4.422446619692448e-06 4.454302827575269e-06 4.485574676199729e-06 4.517707226569182e-06 4.5514207921075e-06 4.586419950680386e-06 4.621781000665245e-06 4.6557260760271045e-06 4.685353143296617e-06 4.705844256892361e-06 4.708401600605099e-06 4.671241235477653e-06 4.486707493635307e-06 7.497081941096365e-07 3.740486779799995e-10 0.0002329552490608168 0.00020170694898745002 0.00013138031934274092 7.597607581093918e-05 4.104665628884135e-05 2.1297414055948897e-05 1.1653785089843174e-05 1.2473208487154833e-05 4.3355809322581684e-05 0.00019349809098528217 0.0007629840461571977 0.0025429215268773235 0.0070484851256475065 0.016065421555948842 0.029858580744234794 0.044918050999318976 0.054377117731890114 0.0529251921861748 0.04156623478508278 0.026642696286656865 0.014392935670378694 0.0071196182632920855 0.004977852890292065 0.00542664783067437 0.005555749628674096 0.005792847207449784 0.006092351230171125 0.006442942787738002 0.006843221331633873 0.007295746822123626 0.007807194637827526 0.008389287170106742 0.009061542273601198 0.009857219849243908 0.010836483579150156 0.012118432674121701 0.01397521145425885 0.017198496413171217 0.025301480490066645 3