# vtk DataFile Version 3.0
vtk output
ASCII
DATASET RECTILINEAR_GRID
DIMENSIONS 41 41 1
X_COORDINATES 41 double
0 1 2 3 4 5 6 7 8 9 10 11 12 13 14 15 16 17 18 19 20 21 22 23 24 25 26 27 28 29 30 31 32 33 34 35 36 37 38 39 40 
Y_COORDINATES 41 double
0 1 2 3 4 5 6 7 8 9 10 11 12 13 14 15 16 17 18 19 20 21 22 23 24 25 26 27 28 29 30 31 32 33 34 35 36 37 38 39 40 
Z_COORDINATES 1 double
0
POINT_DATA 1681
FIELD FieldData 1
Concentracao 1 1681 double
1.0 1.0 0.9999999999996638 0.9999999999986946 0.999999999997047 0.9999999999947486 0.999999999991808 0.9999999999882273 0.9999999999840067 0.9999999999791486 0.9999999999736211 0.9999999999675926 0.999999999961201 0.9999999999557388 0.9999999999499956 0.9999999999438791 0.9999999999374832 0.9999999999308334 0.9999999999184858 0.9999999996973897 0.999999997570702 0.9999995089420284 0.9999989811277579 0.9999983850863431 0.9999975763364415 0.9999961729890356 0.9999932031929213 0.9999863404114953 0.999970310065212 0.9999334931986433 0.9998441171029112 0.9995657027767267 0.9984871555560544 0.9924882580177982 0.9611513912883934 0.8539097605677132 0.6279200682646007 0.337852993053365 0.11435965899832852 0.018109605963292433 2.285653522975555e-07 1.0 0.9999999999995964 0.9999994245373496 0.9999986946570656 0.9999979152568739 0.9999971209364661 0.9999963230078127 0.9999955244058348 0.9999947258863247 0.9999939366427957 0.9999931433821548 0.9999928798691758 0.999993561311404 0.9999955078078236 0.999996528524589 0.9999972484749269 0.9999977293909965 0.9999980560829984 0.9999982557225089 0.9999982634924608 0.9999689921687683 0.8701997432814472 0.8535539258582284 0.8500081270618547 0.8494826333080104 0.8493536534481382 0.8493076387293624 0.8492523211361682 0.8494073845778065 0.8493714600463373 0.8599987209272365 0.8734593620513188 0.9115671652310393 0.9262569313271203 0.9078927335666885 0.807229994150353 0.5883617806980261 0.31194364768239596 0.10377445539474028 0.01613764211266977 2.039085166275895e-07 0.9999999999996637 0.999999424524955 0.0032680291369807835 0.0017658442877660845 0.0015866641778221767 0.00149057941885322 0.0014032039061199993 0.0013309288928409434 0.0012728801749350303 0.001269959778208891 0.0012123476462342177 0.002396638488910359 0.9999684358843391 0.9999792593416492 0.9999865845783175 0.9999903026276995 0.9999926017166231 0.9999940513953127 0.9999949021190069 0.9999953307038989 0.999762150413565 0.0008238591401885105 7.655378896041105e-05 7.453346854429997e-05 0.00011275740253467999 0.00013074256665229907 0.0001420850376043984 0.00014948682320131508 0.00015984459536326305 0.00016078349336584992 0.0003374027991153533 0.8730193892300593 0.8877930996571558 0.8981687606259665 0.8713500254428218 0.7575286598682519 0.5336114130743478 0.2715819668582632 0.0866042778370458 0.012919899582642858 1.6500638057461335e-07 0.9999999999986943 0.9999986946469093 0.0017627254520269913 2.8014045124712424e-06 1.244632601946975e-06 1.1035475921157872e-06 9.817572287219157e-07 8.805463719058784e-07 8.040891096529389e-07 7.710214059727456e-07 7.764398120382156e-07 0.00011909128152773137 0.9999390044244665 0.9999683180351023 0.9999779961071475 0.999983842749793 0.9999875147667159 0.9999899766048104 0.9999916064611899 0.9999924282867935 0.9995067596501958 0.0005237078797194574 1.300096036992793e-07 4.2112116997613585e-09 7.952677078305532e-09 1.054371268886951e-08 1.2292122401057209e-08 1.3578634475045944e-08 1.5016161776198227e-08 1.7834820037894477e-08 4.4989181565843936e-05 0.8706028649698724 0.8795799125179813 0.8764895312615604 0.8287008814196016 0.6901715647403074 0.45943288844216484 0.2200287562399999 0.06610517487446387 0.0093230600086705 1.21781616142423e-07 0.999999999997047 0.9999979152444565 0.0015837699444162712 1.2401047194498082e-06 1.2789125815127012e-09 5.41735412692945e-10 4.543169277191886e-10 3.830793440951032e-10 3.282998322077265e-10 2.96984549749588e-10 6.965094842018741e-09 0.00011556903253314417 0.9999008708971749 0.9999539585121886 0.9999697811041022 0.9999777626452612 0.9999828010508022 0.9999862467314712 0.9999886864655871 0.9999900441537406 0.9991274303168343 0.0004965828362674123 1.1455320319750896e-07 1.6813091567972765e-11 4.311916249325406e-13 6.099075833958691e-13 7.410115772257136e-13 8.35786387203499e-13 9.541240558388659e-13 9.558696389219394e-10 3.7878821414868645e-05 0.8581761431146997 0.8590586022336355 0.8375098415933344 0.7590204113092969 0.5942694251562556 0.3683616429508324 0.16418732343953518 0.04612066500907685 0.006113086302698602 8.258654117597517e-08 0.9999999999947486 0.9999971209220958 0.0014878322238586629 1.0994859446752564e-06 5.387528858830792e-10 3.9602084886338785e-13 1.5660839232698566e-13 1.2287087464870356e-13 9.712832837054117e-14 3.205481205219655e-13 6.37660358327227e-09 0.00011279689264035974 0.9998592663798247 0.9999385696110656 0.9999611336003105 0.9999718931945245 0.9999784106057106 0.9999828899672394 0.9999861844534265 0.9999874725484444 0.9985981692374957 0.00045921788712737914 1.0287935542034465e-07 1.4722634049239448e-11 1.5448602865006467e-15 2.9103962239112916e-17 3.53224162444924e-17 3.955892402455732e-17 1.0804195879475877e-14 6.538927240969273e-10 2.9581574415305818e-05 0.8154135215746608 0.8033630249084391 0.7562469869636383 0.6479582182019014 0.4724009468666978 0.2714666076937646 0.11257710682133756 0.029606330896605373 0.00369398554991322 5.19841648770036e-08 0.9999999999918078 0.9999963229917155 0.0014005992765962095 9.781183456201426e-07 4.5179556961695127e-10 1.5545272556876838e-13 8.567641286952323e-17 3.1123734200993937e-17 2.838244045784141e-17 2.2072548167643998e-13 6.011865340587706e-09 0.00010947044991011178 0.9998154773999992 0.9999221597895017 0.9999521867429446 0.9999660437956136 0.9999742307397361 0.9999798177976892 0.9999839810164783 0.999983717917314 0.9978810780914386 0.0004309572671137675 9.243785609845125e-08 1.2879003983846917e-11 1.305841577376462e-15 1.0459023411093969e-19 1.4410455558043648e-21 7.421236794107255e-20 5.9625450024532406e-15 4.03942147168025e-10 2.1040608708486148e-05 0.7187663602874229 0.6919339575843368 0.6237087161868736 0.5029513933088097 0.3421771833606426 0.18354826334883517 0.0714264451634438 0.01773286004345571 0.0020971480449407626 3.07549787537342e-08 0.999999999988227 0.9999955243880677 0.001328441867736407 8.772609776933379e-07 3.8093936842463857e-10 1.2195750500539708e-13 3.0835335205675317e-17 1.3224398582400476e-20 5.3286227881506496e-18 1.9906931896451954e-13 5.604219696101589e-09 0.00010561496170811238 0.9997713657421131 0.9999047326789816 0.9999426557353074 0.99995997483743 0.9999700432356755 0.9999768514538325 0.9999818959180276 0.9999772257356508 0.9969570975699557 0.0004072497694054068 8.375828166265419e-08 1.1263052762893446e-11 1.1039037252353625e-15 8.429790948588676e-20 8.704196354264841e-24 3.28148311588426e-20 2.94783248528622e-15 2.2291132658338106e-10 1.3385630976896511e-05 0.5658702546581994 0.5305429845694115 0.45845024818016655 0.3507683521728532 0.22572332175680512 0.11480153859160207 0.0425512960199428 0.010102177765838357 0.0011442986307380431 1.7352990187082662e-08 0.9999999999840066 0.9999947258668997 0.0012704855646780366 8.010689284323549e-07 3.26453715903068e-10 9.640155240366538e-14 2.810696941588919e-17 5.267861416979648e-18 9.042083180901396e-18 1.7636434048031084e-13 5.158809673958565e-09 0.00010121869658758516 0.9997282547686254 0.9998853837777467 0.9999318034777861 0.9999531386882918 0.9999654517231118 0.9999736925259077 0.999979648974534 0.9999661791500313 0.9958589281835656 0.00038969675812252036 7.741715975749417e-08 1.0016977830355469e-11 9.405144741016596e-16 4.0747772375148103e-19 2.557605220467885e-19 1.9969213515460868e-19 1.2824911154777466e-15 1.0805342466988651e-10 7.451794328349221e-06 0.3849599271566088 0.3526305582627518 0.2960507833702054 0.2194390662100542 0.13673226302834296 0.06741148663582708 0.024257013772062064 0.005594270391651557 0.0006147334436850907 9.4890686611218e-09 0.9999999999791483 0.9999939366215325 0.001267545541501895 7.680949940406956e-07 2.9529639045355176e-10 3.17956541882599e-13 2.1885277676561425e-13 1.9732599779124426e-13 1.74762166459516e-13 3.042845428966097e-13 4.675679200044819e-09 9.619946532211872e-05 0.9996872262051862 0.9998621183598999 0.999918020670628 0.9999444341115108 0.9999597073227462 0.9999698102115091 0.999976761999013 0.9999497173689228 0.9947360588705861 0.00038601693819115127 7.454428204345358e-08 9.334958293123969e-12 2.857156478132425e-14 2.260182991975133e-14 1.7933099507990662e-14 1.3815845403090058e-14 1.0751120824354192e-14 4.4380698923167176e-11 3.494964378109813e-06 0.2172518765391372 0.1971158659602442 0.1659047898182159 0.12348615529831546 0.07699702947127317 0.03780843683998902 0.013496667395181345 0.003076585275525039 0.0003327293755239152 5.114528816127112e-09 0.999999999973621 0.9999931433592465 0.001210023850930032 7.734580783997144e-07 6.926805916506403e-09 6.340785321136767e-09 5.9771204092742935e-09 5.570718727042341e-09 5.1267278170310775e-09 4.645219543400505e-09 8.259532326689441e-09 9.032272856889604e-05 0.9996479855957198 0.9998306100781336 0.9998973774743364 0.999931080138367 0.9999509000681253 0.9999638490318278 0.9999721841596988 0.999930316847081 0.9937949053118088 0.0003757001354891639 7.60227752780382e-08 1.5924686244779441e-09 1.3890583286326539e-09 1.1937595467684391e-09 1.0037589474063123e-09 8.230774733933901e-10 6.54549567256995e-10 5.143060817339155e-10 1.2525925540158456e-06 0.09250870219075467 0.08699763469090378 0.0786472516290625 0.06258341626979233 0.04077196571803603 0.020570014137735702 0.0074555011659726235 0.0017108749594756524 0.00018498506717201668 2.7632903383147607e-09 0.9999999999675925 0.9999928798426859 0.00239117498312759 0.00011876222290995456 0.00011524599275837564 0.0001124738033015192 0.00010914730217881008 0.00010529175962919844 0.00010089544139578086 9.587615769766446e-05 8.999939440747648e-05 0.00016529331359424565 0.9995750974969349 0.9997492984347425 0.9998395082580416 0.9998921889723055 0.9999251142671369 0.9999467578675791 0.9999600848043648 0.999911014739714 0.9940860693320439 0.0006290063707487365 5.694727846309176e-05 5.341411902211258e-05 4.954760872756883e-05 4.53390943629774e-05 4.085091488899543e-05 3.6120487181430424e-05 3.117385691102341e-05 2.603804777089672e-05 2.0980342921988087e-05 0.01738254930347098 0.022238219584427343 0.029717906237095807 0.02827355237032779 0.020414952168948168 0.010961550091418724 0.004133404229016248 0.0009731852580083375 0.0001069623029599711 1.5192671994875134e-09 0.9999999999612008 0.9999935613014107 0.9999684361569108 0.999939004272296 0.9999008707310761 0.99985926619869 0.999815477203537 0.999771365530036 0.9997282545124401 0.9996872244106416 0.9996479316810336 0.9995733711046707 0.9991290864868906 0.9992411016793629 0.9994338205487283 0.9996062022152866 0.9997343022211252 0.9998231677294718 0.9998824933618768 0.9998598692221504 0.9948528725378432 0.9939740811768987 0.9922351138113868 0.9893152830327575 0.984618941830549 0.9770897883995628 0.9650176671172922 0.9456985128159772 0.9150303385675135 0.8671058908704168 0.7944891810662179 0.6864003291735029 0.32891782419642507 0.1370841721681863 0.05055755404117827 0.019286172598273095 0.00757645780339687 0.002567809197101954 0.0005925017483946988 6.568730855435135e-05 8.653133780218501e-10 0.9999999999557385 0.9999955078079006 0.9999792593320687 0.9999683179424542 0.9999539583950531 0.9999385694792823 0.9999221596469436 0.9999047325268515 0.9998853835846889 0.9998621165933621 0.9998305590535093 0.9997478346176724 0.9992393467623005 0.9987237111623345 0.9985975883573601 0.9987448198754226 0.9989973076044555 0.9992526280137264 0.999459918709142 0.9995728708260458 0.9968857395826144 0.9947746788792328 0.9928862567853951 0.9898959881661432 0.9851671982839998 0.9775733020690954 0.9653426020687357 0.9457030196756147 0.9145223041319485 0.8659277234230428 0.7927373460584936 0.6787370035633823 0.48230205502834644 0.2557576298731521 0.10718541993145435 0.036495303539288065 0.010537349729194526 0.002587305145198849 0.0004823295670545579 4.825788667662662e-05 5.428449953561146e-10 0.999999999949995 0.9999965285199618 0.9999865845553211 0.9999779960414881 0.9999697810142824 0.9999611334957408 0.9999521866278606 0.9999426556113974 0.999931803307501 0.9999180188694419 0.9998973317080646 0.9998384388019564 0.9994310854089884 0.998595011177685 0.9978045048896915 0.9974208914303764 0.9974504606681408 0.9977324958665406 0.9981013991222787 0.9983971401359566 0.9970531748775547 0.9951982196307931 0.9928736921420833 0.9895461028295596 0.9843194683442056 0.9759919080729733 0.9627033652700991 0.9417131947910357 0.9091288436739361 0.8596736719566302 0.7862195050683968 0.6796739713591173 0.5224942608183873 0.32925557767431995 0.16311705113055738 0.06287277581895954 0.018669629341221062 0.004171471791616318 0.0006489680205852143 5.3891965882433255e-05 4.4824210554751753e-10 0.9999999999438786 0.9999972484699778 0.9999903026016698 0.999983842697945 0.9999777625736709 0.9999718931090951 0.9999660437000194 0.9999599747329634 0.9999531385232481 0.9999444321932265 0.99993103992571 0.9998914236531313 0.9996033362389333 0.9987399833657672 0.9974165375230551 0.9961471263548615 0.9953388333556183 0.9950670254931647 0.9951705200399127 0.9953799246861738 0.9946390825894759 0.9929849483661253 0.9903071247540062 0.9861319084587223 0.9795658004087598 0.9692895796364395 0.953469606112787 0.9296643185337585 0.894701203068931 0.8443957742181003 0.7732232965069081 0.6741373876302088 0.538336585168627 0.3699268832651297 0.20659944942671352 0.09011169635027581 0.02969421577599108 0.007054825513086917 0.001099064347709666 8.615032756544728e-05 5.537832939541619e-10 0.9999999999374825 0.999997729386163 0.9999926016936692 0.9999875147241024 0.9999828009921634 0.9999784105348475 0.9999742306594692 0.9999700431450311 0.9999654515287696 0.999959705047396 0.9999508639815461 0.9999245693585697 0.9997317356992972 0.9989912393483554 0.9974415168934317 0.9953310154039925 0.9932386338810155 0.9916098141591715 0.9905253889784931 0.9897360828580049 0.9884081981636831 0.9859891342480595 0.9819855030318104 0.9756565516380653 0.9659697208673965 0.951597239255625 0.9310250327101969 0.9026324857419901 0.8645797151700221 0.8142935968462867 0.7476068379310069 0.6584313114817735 0.5394714741858425 0.39120582956819505 0.23688282363073968 0.11375181025493297 0.04132770980985758 0.010715927280744157 0.001785677993634817 0.0001457083620560357 8.474520134192403e-10 0.9999999999308277 0.9999980560784484 0.9999940513753528 0.9999899765689932 0.9999862466823477 0.9999828899068367 0.9999798177210659 0.9999768513019898 0.999973691836027 0.9999698054765475 0.9999638097829855 0.9999463558931233 0.9998210470626574 0.9992463524427893 0.9977200379144918 0.9950497951414606 0.9915950496171635 0.9879700343057295 0.9845620752068459 0.981285340958029 0.9774051837950075 0.9720123135326932 0.9641256449650629 0.9526598117250926 0.9364605451325941 0.9145058379289425 0.8861588509226193 0.8513055532342755 0.8100557277031852 0.7617063292552235 0.703161098763234 0.627687648516173 0.5271144660057995 0.3978858013007989 0.25540668544818945 0.13177485658308416 0.05177331932542229 0.014513542877885578 0.0025999998571394115 0.00022591163320388803 1.2953021515884588e-09 0.9999999999170691 0.9999982557160035 0.9999949020954086 0.9999916064085125 0.9999886863197361 0.9999861838998979 0.9999839787694245 0.9999818876317632 0.9999796228105609 0.9999766918192547 0.9999720128498781 0.9999595637597688 0.9998805819869391 0.99945376607194 0.9980865979270039 0.9951436941447857 0.9904901012295445 0.9845324548949747 0.9777495291101859 0.9701558730114873 0.9609635023968705 0.9488716879743916 0.9324846469015432 0.9106245616101533 0.8825446981817234 0.84821502332081 0.8085550521986891 0.7654755178456928 0.7214272236728868 0.6778615619469014 0.6324909367888865 0.5772775175403569 0.4990993278881524 0.39129092578718117 0.2628596898127765 0.1431246405816785 0.05968850195803404 0.01780649630569525 0.0033922368364145646 0.00031245674226254686 1.8287763232280261e-09 0.9999999996463098 0.9999982633489752 0.9999953297473912 0.9999924200587428 0.9999900008489875 0.9999873242924616 0.9999833112672192 0.9999762736577369 0.9999642463049829 0.999946317618194 0.9999252205178369 0.9999044474550044 0.9998520053249011 0.9995619981219237 0.9983767080837825 0.9953402452853765 0.9896725545974571 0.9812076844268709 0.9700925623251815 0.956051139995039 0.9377335774462684 0.9131364858492594 0.880735913731644 0.8405945816394698 0.7939008090468005 0.7423242309514118 0.688533300922083 0.6361921104585297 0.5893991169700753 0.5528112685301779 0.5262567332617306 0.5002319274349034 0.4534534774314484 0.3707787993769996 0.25911741256982046 0.1469654170446147 0.06409849980779239 0.02004895006703232 0.004008467189180243 0.00038711890579855985 2.3542874213939423e-09 0.9999999970766695 0.9999672163230864 0.9997482491716577 0.9994804429836763 0.9990819654008886 0.9985263552979026 0.9977739926470344 0.9968051206420339 0.9956540405543594 0.994476726086716 0.9934888647407576 0.993778366727874 0.994573731927392 0.9967087814811875 0.9969393712996598 0.9945368125321699 0.9882817496935349 0.977242299745617 0.9607842235847853 0.9375953134840039 0.9032474835341505 0.8514648788933025 0.7876278993229652 0.7193244763938104 0.6489338589112893 0.5791075999817428 0.5129395166695274 0.4537656241909885 0.40563135313468646 0.3710635378096906 0.368925895376151 0.37526357336021227 0.3850942393575686 0.3347225851589978 0.24331376216460482 0.14288908253346544 0.06447014508690943 0.02089940231899065 0.00433441362327385 0.00043408682654781416 2.7777418138356315e-09 0.9999995063248793 0.8701971259274977 0.0008184359336609189 0.0005202245318462418 0.0004931720165185331 0.0004559452086492238 0.00042776412217883136 0.00040411286210349735 0.00038658582198612706 0.00038284870154287634 0.00037256634632906244 0.000623902461690494 0.9936688108181461 0.9945050490583093 0.9949848613452549 0.9927871807429847 0.9857567421961414 0.9717095234161824 0.9485015623456066 0.9127624533674614 0.8512030394832584 0.0001028512016966312 6.472429978632445e-05 6.157227855006553e-05 5.612582447792981e-05 4.9822144220022736e-05 4.393085557079833e-05 3.901219731224437e-05 3.6231313367195304e-05 3.361665237724617e-05 5.7872714923277836e-05 0.348857164667511 0.33946299771589955 0.2972696526743691 0.22051061252187482 0.13222115672557244 0.06112353828255865 0.020334597877981357 0.004333638434757705 0.0004458681146570382 3.032069889545294e-09 0.999998971557013 0.8535508785801255 7.598506880241389e-05 1.2836588354492226e-07 1.1307983859787517e-07 1.0152052404778716e-07 9.118131934046827e-08 8.258642543628857e-08 7.630520282072573e-08 7.345247933721534e-08 7.489758092925122e-08 5.6466742322180326e-05 0.9918459086076288 0.9925305357486455 0.9925475740455748 0.9899791772523836 0.9815936564556311 0.9636089065328658 0.9318281774690019 0.8800214794067631 0.7870540443444586 6.454116098607047e-05 6.560575267373662e-09 3.487925224379048e-09 3.3251524134835773e-09 3.0210842287852775e-09 2.702243055795906e-09 2.4420026279694606e-09 2.3127255401476845e-09 2.347483559217772e-09 4.152098616164463e-06 0.31008519013554525 0.2992343683413332 0.2595855905091128 0.19305943804879896 0.11714372650935918 0.05498653132530109 0.018636973202108467 0.004052176758958127 0.00042525777757136196 3.0939992646952685e-09 0.9999983542910122 0.850004185260434 7.395962018086006e-05 4.1477217790500595e-09 1.650456208332437e-11 1.444772243450419e-11 1.2633057903017752e-11 1.1042996795095568e-11 9.817170628396175e-12 9.145915563974832e-12 1.5671129515306027e-09 5.293676300396705e-05 0.9887879060781255 0.9893991384880995 0.9890640115400324 0.9856182095398767 0.9750288475834897 0.9518312808949688 0.9095719496314392 0.8394509171619702 0.7184568618199983 6.133188502239485e-05 3.464459669970971e-09 3.052385250544623e-13 1.539449140436032e-13 1.439896653618467e-13 1.310113875846618e-13 1.196634561005451e-13 1.1488931826425011e-13 3.399572814541236e-11 3.362349913796153e-06 0.26678258539720884 0.2556526766116728 0.22046199235717595 0.16373748651180267 0.09980035309949818 0.047321170618146696 0.016256833246097613 0.003589500772800675 0.0003824128228126594 2.9829505996774878e-09 0.9999974831702295 0.8494774311688742 0.00011185532057341745 7.82856874331082e-09 4.2131481458756385e-13 1.50816552740449e-15 1.274375030827878e-15 1.0768065958538288e-15 9.170362819717557e-16 2.790788662118024e-14 1.3657463210635997e-09 4.907292054752488e-05 0.9838762940124818 0.9844535138856154 0.9836020648954551 0.9787761784227282 0.9649982466407053 0.9351986065878256 0.8809832928121932 0.7922683800382581 0.6477881265026656 5.5844969782206805e-05 3.2976721249635334e-09 1.521886032011519e-13 1.188376054766224e-17 5.737726322623561e-18 5.276549071671799e-18 4.823834160877681e-18 2.127167179535499e-16 2.5345206983155657e-11 2.641897601705484e-06 0.223199721654254 0.21261382864408337 0.18206759274553566 0.13474899426988474 0.08229289197356529 0.03930260576064012 0.013655131767975595 0.0030553868968618905 0.0003297344622768836 2.746413292903009e-09 0.9999959066995358 0.8493466617734217 0.00012965390148817456 1.0373045907316404e-08 5.954575207188948e-13 2.820482136723845e-17 1.0157817252253512e-19 8.184241877069696e-20 3.951608184395936e-19 2.2050729950200693e-14 1.1724737342616002e-09 4.486864112125159e-05 0.9760185015633865 0.9765279738458822 0.9749186594742344 0.9680924571452726 0.9501405862456346 0.9126748349738266 0.84604562923538 0.7401714607604127 0.5777092263570677 4.9514197200709606e-05 2.9913712431599163e-09 1.4207071848918848e-13 5.641828883340579e-18 3.9538585592002606e-22 1.8377568863342112e-22 1.1780211932792856e-21 1.44740943522445e-16 1.8394226542572228e-11 2.016657422881509e-06 0.18166608073468915 0.17207365053401433 0.14642147822412577 0.10800998029231156 0.06609802138282214 0.031808797169213615 0.011183465544924439 0.002537680751467186 0.0002775959144428263 2.4410718833449276e-09 0.999992483794356 0.8492980467117184 0.00014085159934294463 1.2085510086958415e-08 7.228356174672908e-13 3.4194992847913804e-17 1.3848300390154702e-21 8.391002279941714e-24 2.4761000423910163e-19 1.7470970193493244e-14 9.846298868017724e-10 4.03871532471061e-05 0.9634561553800088 0.9638008173142405 0.96110350981499 0.9516904138577816 0.9289173703066358 0.8836264330992514 0.8057060878345805 0.6858565493915034 0.5113157190761355 4.3602278645075214e-05 2.6711193195560894e-09 1.290007919403847e-13 5.176093971249752e-18 1.796176791166611e-22 1.9183796767799953e-26 6.567896142336657e-22 9.758807260996494e-17 1.2952857487223085e-11 1.494748154139887e-06 0.14365164585600426 0.13538307736704935 0.11471216972216774 0.08459459368054477 0.05205039211067003 0.02533096065475009 0.009046463536401669 0.00208980225205431 0.00023259828028803354 2.1181886236710724e-09 0.9999845027897623 0.8492388377175916 0.00014813148434896645 1.3341336410418455e-08 8.145430343868365e-13 3.825191730719075e-17 7.039782873619137e-20 3.0979422108023345e-20 1.9264261125232184e-19 1.3438060936718463e-14 8.062154902037164e-10 3.566723149869706e-05 0.9434298635349517 0.9434439360738575 0.9393660416232069 0.9270949548569741 0.8997011239140751 0.8479603663873365 0.7619080605063415 0.6330031008419976 0.4519314104236188 3.86629272345194e-05 2.409278007699097e-09 1.1755862541250195e-13 4.719599378635009e-18 1.138397420476343e-21 6.3305424122133205e-22 8.080955773612472e-22 6.359674290657935e-17 8.821689990131727e-12 1.0721449416105635e-06 0.10995852984384008 0.10324500300357306 0.08749222030918714 0.06490239437705544 0.04043117490574769 0.020039881344578396 0.007321784302080076 0.0017343874804478592 0.00019786949197036122 1.8159696613340265e-09 0.9999658629155064 0.849387907966393 0.0001583274558220304 1.4742871885211197e-08 9.28796850859588e-13 1.0378250826280242e-14 5.702781540344812e-15 2.806046272604868e-15 1.214596241010587e-15 1.0424217487343458e-14 6.400495481433248e-10 3.073691621548742e-05 0.9117921761310297 0.9112817317248799 0.9057821192324341 0.8911237983980853 0.8606667715706947 0.8058159238087205 0.7171244218632923 0.5857011544566402 0.40356372602676177 3.584381889621606e-05 2.276571679282016e-09 1.1256012852970763e-13 2.062960168778346e-16 1.4017607139964675e-16 9.438566417845475e-17 6.142604453559072e-17 7.805535331071743e-17 5.764759139415619e-12 7.384641096797864e-07 0.08087225777576179 0.07587095373280514 0.06481180455686017 0.04885780617362718 0.03114685095792399 0.01589017999605616 0.006002045406632567 0.0014736762188443913 0.00017430577695574573 1.5584885021220094e-09 0.9999232317612192 0.8493423812047816 0.00015918302751318688 1.7490254558303587e-08 9.304840526652721e-10 6.34222057319309e-10 3.900766703373987e-10 2.1418788782883664e-10 1.0325913115329004e-10 4.216401006544187e-11 5.014649167016244e-10 2.5626008544780516e-05 0.8626360612538234 0.8614461053926744 0.8550935678202842 0.8396254736955245 0.809281055696983 0.7565183388257012 0.6728038788421425 0.5485586016992174 0.3686991204874972 3.3188454714862905e-05 2.3043806652224804e-09 3.314984768890188e-11 2.4682390330280296e-11 1.7888520498228817e-11 1.2578588716091596e-11 8.55393623965982e-12 5.581048140595594e-12 6.982843362588096e-12 4.802169913930608e-07 0.05625031233524789 0.05308579178703372 0.046367945474425014 0.03608342800946225 0.02388546054375681 0.012716751595335044 0.005034345630201244 0.0012996626348515748 0.0001618850184877198 1.3582573521421716e-09 0.9998204157099807 0.8599558185419868 0.0003337421591630879 4.438819589279097e-05 3.728790669003462e-05 2.9022584861727182e-05 2.055192452846502e-05 1.3005417816397022e-05 7.196875449330062e-06 3.353483752955346e-06 1.193462245434331e-06 2.0594294757967494e-05 0.7886392205626269 0.7868753855687279 0.7802850495505669 0.7671850705788776 0.741461654581763 0.6970136905961919 0.6266414804240921 0.5213292173699827 0.36585771949651275 5.6953170309391097e-05 4.075178234912812e-06 3.295901309340868e-06 2.586067242169315e-06 1.97107539009928e-06 1.4586420801969486e-06 1.0445014247204475e-06 7.181621436361201e-07 4.6614340606008035e-07 5.537561726464806e-07 0.03540889231208329 0.03430595053450391 0.03166261659457135 0.026023743070652496 0.018226475826098112 0.01029992444063794 0.004345591526695386 0.0012006506786244517 0.0001606516208111427 1.22036154835845e-09 0.9995034689633856 0.8733919428383131 0.8729241043009944 0.8703166585682229 0.857109676200786 0.8124444638731084 0.7130593982778177 0.5579994765614877 0.37684885165772436 0.21093704067788208 0.08900825852312519 0.01654786472342183 0.6793164440334416 0.6716155429626451 0.6725556108558458 0.6670058952167399 0.6513105698843618 0.6206881682125198 0.5706638923313357 0.49443413678637566 0.3713635224395167 0.34500338550832166 0.3062593052198953 0.2630634664062579 0.21967698022910434 0.17842580564473165 0.14076602225046428 0.10748020740609217 0.07883319578746059 0.0546653554753812 0.03428938096136824 0.020499096016964286 0.020292576623576624 0.020266078411723933 0.018102260385712353 0.013729602614615064 0.008404598482932768 0.0038544175128090224 0.0011637864130229028 0.0001712701703301793 1.146113612918966e-09 0.9982950402462019 0.9113675576086313 0.887540608414695 0.8790206063176771 0.8574075986367409 0.7994530860468463 0.6852126620432549 0.5220058389953341 0.3443519383592681 0.19090804395285796 0.08351876144278461 0.021145643618390803 0.3240820195850068 0.4755050497117632 0.5151871372726815 0.5308447156237498 0.5319394044876609 0.5196839669385521 0.4919864209346058 0.4469872775590702 0.3796578045725508 0.3347078040372062 0.29471594840735404 0.25138668957167076 0.20866422638453372 0.16851292069857862 0.1322698130517717 0.1006161304305901 0.07374010397345573 0.05144621286388981 0.033141440674613484 0.019699390194218847 0.014162782488271164 0.013034847218318053 0.012229142839557923 0.010122109541870589 0.006834095775704579 0.0034787958236089864 0.0011746326156630241 0.00019518149613336752 1.1354684120977368e-09 0.9917396711591127 0.9254722487079049 0.8971372369048862 0.8747684241071819 0.8341385328983333 0.7502952261271517 0.6153523049025338 0.4492261110945043 0.28790230838321546 0.16005686922125342 0.07525803634175322 0.028204438918814054 0.13435783475399604 0.25119157007997844 0.32346681229807595 0.36345876451166265 0.3843804763823136 0.3909332204473375 0.38442978088503676 0.3642541552442621 0.3287959387354386 0.2918691108624067 0.25462829459626485 0.21590844864705608 0.17796555842539588 0.14281493993242556 0.11162846670925688 0.08493478881180193 0.06276130140570427 0.04478717951024321 0.030500729372470104 0.01950428580534889 0.012685823297333348 0.009686470138452117 0.0085339065350353 0.0074001390918486554 0.005502631483353624 0.00315429297103628 0.0012170502417543192 0.00023447080150388005 1.1877824093043514e-09 0.9584438642456206 0.9050821612522992 0.8680053464394836 0.8241470013364873 0.7525226854188751 0.6393827757849597 0.4932884770976481 0.341649531678856 0.2121638392229453 0.11849947066303837 0.05961062857317236 0.026734862593093742 0.04908096234800815 0.10480131374770509 0.1596624385953402 0.20226391896920487 0.2319175459419377 0.2500428374913852 0.25731358744334426 0.2536023554362063 0.2380378406060313 0.21557618540779122 0.18851241361542445 0.1596243712059851 0.13110997391144055 0.10487088040772266 0.0819546510799605 0.06273711123862855 0.04712480389786404 0.034729913703438454 0.024994141736102978 0.017354003287830468 0.01175147135645962 0.008317542518373312 0.00658803433541768 0.00558696934742068 0.0044325631505910314 0.002855690672376485 0.0012768779843861558 0.00029209544768523657 1.3019681087680357e-09 0.8472835240017683 0.8005792287417044 0.750314943435606 0.6819328457910202 0.5849170045147489 0.46255963766836483 0.3329851301504985 0.21818258983332164 0.13124718006063635 0.07339758979342081 0.03860433372429562 0.01920382723377179 0.0184384869981387 0.03544283953293541 0.06128903361087633 0.0879092886393588 0.11098200956707999 0.12855250510980504 0.1395933000034783 0.14328449552668926 0.13922072119711304 0.12869863428729014 0.11386642177418671 0.09684015755276225 0.0796952204127