# vtk DataFile Version 3.0
vtk output
ASCII
DATASET RECTILINEAR_GRID
DIMENSIONS 41 41 1
X_COORDINATES 41 double
0 1 2 3 4 5 6 7 8 9 10 11 12 13 14 15 16 17 18 19 20 21 22 23 24 25 26 27 28 29 30 31 32 33 34 35 36 37 38 39 40 
Y_COORDINATES 41 double
0 1 2 3 4 5 6 7 8 9 10 11 12 13 14 15 16 17 18 19 20 21 22 23 24 25 26 27 28 29 30 31 32 33 34 35 36 37 38 39 40 
Z_COORDINATES 1 double
0
POINT_DATA 1681
FIELD FieldData 1
Concentracao 1 1681 double
1.0 1.0 0.9999999999996662 0.9999999999987013 0.9999999999970608 0.9999999999947713 0.9999999999918414 0.9999999999882733 0.9999999999840669 0.9999999999792246 0.9999999999737148 0.9999999999677066 0.9999999999613366 0.9999999999558931 0.9999999999501692 0.9999999999440736 0.9999999999376995 0.9999999999310882 0.9999999999242805 0.9999999999171343 0.9999999999027279 0.9999995224644784 0.9999990292678816 0.9999985392770898 0.9999980494318761 0.999997559615517 0.9999970698198384 0.9999965799545814 0.9999960902342131 0.9999955977622975 0.9999951171206597 0.9999946066569225 0.9999941723217473 0.9999937164858944 0.9999932313976541 0.9999927230286076 0.9999913083061548 0.9998653788410473 0.9937013641948274 0.8717647185855547 0.0001219652817406131 1.0 0.999999999999599 0.9999994282958523 0.9999987009201053 0.9999979240031783 0.9999971320901482 0.9999963364556088 0.9999955400459629 0.9999947436365101 0.9999939564812838 0.9999931652413686 0.9999929039734208 0.999993583108816 0.9999955230156576 0.9999965402769442 0.9999972577900088 0.9999977370780249 0.9999980626641021 0.9999982616362936 0.9999982701603854 0.9999968245798303 0.870534375285886 0.8538978628480244 0.8503675249309033 0.8498642502590614 0.8497662261463167 0.8497636648988646 0.8497701533907842 0.8500138250733714 0.850109997276167 0.8608763246055516 0.8745399613058769 0.9136925485045928 0.9349685199222064 0.9507365469785841 0.9622839259852103 0.9715709325737817 0.9793555424966834 0.980044132029554 0.8623961405559617 0.00012106137540382653 0.999999999999666 0.9999994282835417 0.009777958806734747 0.005316531965760495 0.004792677377292504 0.004521633897921437 0.004275213207096967 0.004072809799765762 0.0039123746640875165 0.0039202641236362615 0.003760022513306331 0.00745118244940758 0.9999685849851773 0.9999793549115742 0.9999866445948363 0.9999903449670682 0.9999926333290174 0.9999940763551225 0.9999949232464354 0.9999953562169928 0.9999870818178294 0.0031564282209438645 0.00029670089281082077 0.00029559504968521856 0.00046016302654051336 0.0005500373222488919 0.0006171521407431262 0.000671521242242412 0.0007439890127156492 0.0007770943285465808 0.0017182170290249937 0.8745133524625659 0.8907130885716531 0.9107742797496836 0.9267283874010137 0.9407610148786479 0.9532807697779075 0.9648439669037184 0.9691840406697823 0.851351879435831 0.00011999668515144154 0.9999999999987012 0.9999987009099719 0.005313434548553954 2.5388064267860075e-05 1.1380795662671045e-05 1.0164922870060355e-05 9.121554920898476e-06 8.252600575847e-06 7.602151610774196e-06 7.35300083335323e-06 7.47409500763101e-06 0.000385643584559271 0.9999391613705862 0.9999684302894242 0.9999780806860284 0.999983907262424 0.9999875654875197 0.9999900176243889 0.9999916409903367 0.9999925168248489 0.9999809291650373 0.00212218126955718 2.0676075260795736e-06 6.593235784914563e-08 1.2990826610741223e-07 1.82445102558981e-07 2.2589804606284236e-07 2.657817166839752e-07 3.140062981243734e-07 4.127147165583502e-07 0.000269206627850805 0.8744780549561955 0.8865784733180233 0.9002622073606128 0.914410487249431 0.9279502740013106 0.9412701681161234 0.9544942216901484 0.9603579342201727 0.8384976165097121 0.00011874499255712736 0.9999999999970607 0.9999979239908086 0.004789792460289917 1.1367151145021371e-05 3.538600943900694e-08 1.516720409026761e-08 1.2872815410545494e-08 1.0995861387203463e-08 9.547114347110933e-09 8.750297770310347e-09 7.702875465262496e-08 0.0003705257867043767 0.99990103756681 0.9999540823553765 0.9999698791045885 0.9999778416398198 0.9999828654395658 0.9999862999004961 0.9999887316339949 0.9999904175560206 0.999977120917359 0.0020970743366658462 1.9675982266674155e-06 1.1424333450435156e-09 2.8088499002734733e-11 4.261329238770542e-11 5.640892995947268e-11 6.957523214155346e-11 8.954017236338438e-11 3.931878481263597e-08 0.00026130821464471663 0.8744306124914482 0.8842586919444793 0.8954297863489407 0.9074012872775179 0.9199595232335793 0.9331343090686746 0.9469779413808745 0.9528717260859935 0.823763568419028 0.00011727840008239111 0.9999999999947713 0.9999971320758317 0.004518895273542222 1.015260655593213e-05 1.513973002676526e-08 3.371780678542581e-11 1.354008768340616e-11 1.0799332087760897e-11 8.68589982391286e-12 1.5598294087185545e-11 6.78095118534625e-08 0.00036782960093070745 0.999859443662572 0.9999387021443488 0.9999612411726206 0.9999719822792497 0.9999784849373495 0.9999829522083139 0.9999862395137753 0.9999887497281231 0.9999737741526928 0.002018572521998208 1.8995022790877402e-06 1.107340651529995e-09 4.612501250285378e-13 8.189629321417144e-15 1.0937002992771448e-14 1.3930924457130038e-14 3.5819199726618025e-12 3.664826601790709e-08 0.0002524198034688968 0.8743756921930902 0.8828663200279211 0.8924519907403153 0.9030308155999501 0.9146089010403147 0.9273787396982307 0.9413234460585127 0.94611984334027 0.8072509502366132 0.00011557295528812925 0.9999999999918412 0.9999963364395693 0.004272616271595019 9.110471062812227e-06 1.284935677920423e-08 1.3507281914496277e-11 2.2632237626730866e-14 8.37858494184068e-15 6.869405319247393e-15 8.122811200748357e-12 6.661026533534625e-08 0.0003646025039500551 0.9998156658589782 0.9999222997852858 0.9999523017638358 0.999966140583273 0.9999743126651698 0.9999798870682873 0.9999840525732779 0.9999873545832424 0.9999707502660674 0.0019706977027432095 1.832158389712034e-06 1.0684575809175853e-09 4.4149256954275304e-13 1.4069965846829487e-16 1.824907005005564e-18 2.2592442327323473e-16 3.1640281801179837e-12 3.377426456195681e-08 0.00024204309059998113 0.8743141669353481 0.8818748486786584 0.8903798289792119 0.8999305339768457 0.9107118100078032 0.9230304611668287 0.9368127625479283 0.9396130892638241 0.7893122272258961 0.00011361565379204969 0.9999999999882729 0.9999955400282572 0.004070329855466274 8.242548783064022e-06 1.0975775855127017e-08 1.0773039673189578e-11 8.35315080308892e-15 1.0841446225988713e-17 7.158181005739686e-16 7.869090819517728e-12 6.523888716471243e-08 0.0003608407278433433 0.9997715654686733 0.9999048795892684 0.999942777171907 0.9999600780339781 0.9999701314363197 0.9999769269022808 0.999982013571433 0.9999860932115926 0.9999680405779044 0.0019355314240105568 1.7784868734916214e-06 1.0275388353772542e-09 4.2009395153926744e-13 1.3067819529815813e-16 6.292973947132866e-20 1.8659326876368528e-16 2.749480182147157e-12 3.066203282321361e-08 0.00023022886940383692 0.8742468727279668 0.8810566079603306 0.8887004326429103 0.8974300713134765 0.9075432960769971 0.9194376945094794 0.9329014432215786 0.9330179616031153 0.7706042094117248 0.00011141259732035871 0.9999999999840667 0.999994743617151 0.003909986669427841 7.592870082863411e-06 9.529633916874045e-09 8.664702110865863e-12 6.848142695311315e-15 7.133040942872461e-16 1.3557304747618993e-15 7.592146451420135e-12 6.369140208120504e-08 0.00035653760649197576 0.9997284659014459 0.9998855381218402 0.9999319315812829 0.9999532484812178 0.9999655467083249 0.9999737774403932 0.9999799025196009 0.9999848123362873 0.9999657409714137 0.001920417434530762 1.7531297068313776e-06 9.98626975229447e-10 3.998963719363947e-13 4.705492668060576e-16 3.295708464626916e-16 4.593453212841395e-16 2.32877798435808e-12 2.7322436075761904e-08 0.0002167644179149886 0.8741726561058915 0.8802487147028367 0.8870940333745398 0.8950930031223274 0.9046224275095599 0.9161321010599657 0.9291788196777253 0.9261968786960091 0.7520573023439487 0.0001089948503585805 0.9999999999792243 0.999993956460092 0.003917856999612503 7.343969165677337e-06 8.734172607067146e-09 1.5558800165577652e-11 8.101510842725255e-12 7.848241906577287e-12 7.571793788611756e-12 1.4546313426776068e-11 6.195369228035729e-08 0.0003516122958653501 0.9996874715048111 0.9998623047048886 0.9999181802175058 0.9999445760453856 0.9999598370958915 0.9999699446364894 0.9999773727772805 0.9999832962143862 0.999964077140137 0.0019619559356436073 1.7833075418857117e-06 1.0053182149508704e-09 5.178919945384141e-12 4.597007004765006e-12 4.392204710467952e-12 4.17940984023426e-12 5.854955022053492e-12 2.3668081378027817e-08 0.00020084809300637113 0.8740746153559641 0.8792692498644838 0.8852803431492295 0.8925721775353467 0.9015840717564831 0.9127607187315865 0.9253510323134259 0.9192191338966967 0.7347503769177444 0.00010641949679257761 0.9999999999737146 0.9999931652185321 0.003757704118371089 7.464845268240665e-06 7.689461958554114e-08 6.769140841509305e-08 6.649319010412673e-08 6.51229958093234e-08 6.357686900335595e-08 6.184073721065205e-08 1.197569041028926e-07 0.00034588698069076547 0.9996492022499502 0.9998317104056577 0.9998983501077158 0.9999319231842496 0.9999516296692287 0.9999645252272734 0.9999738050545531 0.9999810816192188 0.9999630660444041 0.0019548122819361066 1.9012595379494894e-06 4.894658484528782e-08 4.674655699924768e-08 4.5454236081429215e-08 4.408007117475075e-08 4.2626636730554805e-08 4.108609732549862e-08 5.873515925891493e-08 0.00017968941917442013 0.8735868468062898 0.8776759538098993 0.8827537570352215 0.8894572258443547 0.898087767925117 0.9090409930618133 0.9212307120404675 0.9123113629956804 0.7197076012486641 0.0001037642648775545 0.9999999999677064 0.9999929039470777 0.00744575759285148 0.00038530325959033776 0.0003702040927432117 0.00036750776564022986 0.0003642804779730657 0.0003605185212463784 0.0003562152194786909 0.0003512897258741943 0.0003455643277853896 0.0006764280253243594 0.9996159786335694 0.9997840869483927 0.9998653549173089 0.9999106650067489 0.9999380286104479 0.9999557041137282 0.9999679139594224 0.9999772653944355 0.9999639920682868 0.0032701735863169016 0.00031505693445479813 0.00030899869221660576 0.00030509392011012014 0.0003008101495746626 0.0002961790666721143 0.0002911956763275068 0.00028580806224140417 0.00027991787948103886 0.0004022678788008049 0.8331554410856802 0.8452060424228677 0.8636308592751596 0.8784475507868315 0.8912175899874005 0.9039192145970961 0.9165075824661555 0.905706574172871 0.7076678400350289 0.00010111494663674722 0.9999999999613364 0.9999935830988673 0.9999685852558705 0.9999391612196589 0.9999010374014321 0.9998594434822191 0.9998156656633558 0.9997715652577467 0.9997284656755785 0.9996874712646681 0.9996492019963883 0.9996159783814864 0.9996159722573056 0.9997254665897561 0.9998131863775951 0.9998741055654682 0.9999138706970792 0.9999398021890838 0.9999573743349637 0.999969280027655 0.9999653849623562 0.9999438305857588 0.9999262840275331 0.9999074888495207 0.999889698472755 0.9998726146786803 0.9998563687258121 0.9998409701170242 0.9998266140507412 0.9998131917211662 0.9998059201667406 0.9998280986744578 0.9425373594033246 0.9032963357503452 0.8871060636453231 0.8885781907891601 0.8987546399478991 0.9112492082742915 0.8995638114743059 0.6989290265322431 9.85510235491261e-05 0.9999999999558925 0.9999955230157385 0.9999793549020505 0.9999684301974274 0.9999540822389139 0.9999387020132617 0.9999222996434483 0.9999048794381876 0.9998855379618976 0.9998623045353686 0.9998317102243857 0.9997840867528321 0.9997254664646007 0.9997254630502312 0.999773984113054 0.9998310638137997 0.9998787855551773 0.9999139312889146 0.9999384271293837 0.9999557572161526 0.9999601581231252 0.9999531586399285 0.9999484976187375 0.9999434767507608 0.9999387142684911 0.9999339291024019 0.9999288404941648 0.9999229805464497 0.9999157991112885 0.9999064104418595 0.9998964241605208 0.9998844149837527 0.9845926502731159 0.9470703568456669 0.9129623237226308 0.896334079132939 0.8969523900267373 0.9064174992828258 0.894054410275957 0.6933362590128359 9.613378252789739e-05 0.9999999999501685 0.9999965402723388 0.999986644571984 0.999978080620791 0.9999698790153048 0.9999612410686425 0.9999523016493798 0.9999427770490908 0.9999319314509189 0.9999181800792782 0.9998983499598664 0.99986535475648 0.9998131862315354 0.9997739840332817 0.9997739814146382 0.9998040888946246 0.9998443204939877 0.9998817091682659 0.9999115086468643 0.9999332491620223 0.9999452934082304 0.9999480251272389 0.9999481577550519 0.9999472403798608 0.9999459342059805 0.9999444032025094 0.9999425790579679 0.99994023845727 0.9999369731471348 0.9999321254156164 0.9999250062418521 0.9999145382128075 0.9943924603341 0.9727486028354918 0.9395406383525845 0.9116509758521207 0.9003070972374732 0.9033292120788136 0.8894368603766148 0.6904080712166293 9.39009206815945e-05 0.9999999999440726 0.9999972577850812 0.9999903449412008 0.9999839072109017 0.999977841568662 0.9999719821943186 0.9999661404882247 0.9999600779309118 0.9999532483711143 0.9999445759282329 0.9999319230588918 0.9999106648705719 0.9998741054264723 0.9998310637012288 0.9998040888357493 0.9998040865908532 0.9998247046040541 0.9998538524172937 0.9998824391792694 0.9999061375060001 0.9999224764617047 0.9999317428196806 0.9999365592843035 0.9999390975478781 0.9999404061678289 0.9999410605327358 0.999941290454524 0.9999411238953193 0.9999403954092969 0.999938674646219 0.9999351951763366 0.9999286464051641 0.9977315896680988 0.9857837964206698 0.9599460737445402 0.9290610893111966 0.9080385854505815 0.902780724779883 0.8859814949929484 0.6895039253549547 9.186761438465348e-05 0.9999999999376986 0.9999977370732122 0.9999926333062047 0.9999875654451703 0.9999828653812833 0.9999784848669082 0.9999743125854204 0.9999701313490961 0.9999655466145708 0.99995983699572 0.9999516295618469 0.9999380284939268 0.9999138705727073 0.9998787854365588 0.9998443204034972 0.9998247045578986 0.9998247024986378 0.9998392342200608 0.9998601090806231 0.9998809787865477 0.9998980666244454 0.9999101602019537 0.9999182031746362 0.9999234654077456 0.9999270253377692 0.9999295870074795 0.9999315932298414 0.9999332809849069 0.9999346985664892 0.9999356393608062 0.9999355093447212 0.9999331067981849 0.9989953591187739 0.9924186281847615 0.9738722149127966 0.9449678784063511 0.9181706220995 0.9047427169824261 0.8838268382026372 0.6899574909615949 9.00311905375057e-05 0.9999999999310872 0.9999980626595784 0.9999940763352948 0.9999900175888253 0.9999862998518264 0.9999829521493497 0.9999798870012447 0.9999769268286536 0.9999737773609744 0.9999699445513826 0.9999645251358282 0.9999557040143902 0.9999398020808407 0.9999139311769193 0.9998817090667205 0.9998538523430247 0.9998392341830548 0.9998392321696645 0.9998493424160632 0.99986372698376 0.9998778750459869 0.9998894993197609 0.999898234309801 0.9999046049003929 0.9999093303045289 0.99991305175061 0.9999162665745843 0.9999193418835581 0.9999225062182474 0.9999257727168147 0.99992873753815 0.9999303577356832 0.9995124662130886 0.9958316260044384 0.9829164922374828 0.9579453553452706 0.9288261903469657 0.9085953477727357 0.8829021465260459 0.6911458383502537 8.837711873495528e-05 0.9999999999242793 0.9999982616319484 0.999994923228414 0.9999916409594074 0.9999887315925179 0.9999862394640965 0.9999840525171361 0.9999820135099662 0.9999799024533974 0.9999773727063659 0.9999738049782965 0.9999679138762825 0.9999573742431648 0.9999384270294819 0.9999115085465624 0.999882439092183 0.9998601090193183 0.9998493423862674 0.9998493402859133 0.9998560821079316 0.9998652585316417 0.9998740108044962 0.9998811708014327 0.9998867457794974 0.9998911281419 0.9998947927977145 0.9998981776050916 0.9999016854280768 0.9999057050076526 0.9999105322533978 0.999916164613356 0.999921534718231 0.9997285364904178 0.9976224664295202 0.9886323624068141 0.9678425826758028 0.9387220394487981 0.9134973561130836 0.8829459116531422 0.6925159713932035 8.688413561819848e-05 0.999999999917133 0.9999982701556678 0.999995356199792 0.9999925167960274 0.9999904175195478 0.9999887496859684 0.9999873545366265 0.9999860931612656 0.9999848122826089 0.9999832961573208 0.9999810815581686 0.9999772653279517 0.9999692799522656 0.9999557571307971 0.9999332490694252 0.9999061374161171 0.9998809787119927 0.999863726933353 0.9998560820841618 0.9998560797320163 0.9998601484156902 0.9998651045628192 0.9998695057700728 0.9998729816216065 0.9998758220841125 0.9998783174817997 0.9998807642098869 0.999883503815747 0.9998869445146612 0.9998918164984156 0.9998986827769014 0.9999081674439373 0.9998225135750878 0.9985512635855203 0.9921840137801647 0.9750312552596938 0.947179171158863 0.9186602468530463 0.8835852482322287 0.6935981408275825 8.5528183456905e-05 0.9999999999027264 0.9999968245667468 0.9999870817605642 0.9999809290944032 0.9999771208349788 0.9999737740603283 0.9999707501647385 0.9999680404685936 0.9999657408553281 0.9999640770189694 0.9999630659204466 0.9999639919451644 0.9999653848464729 0.9999601580228906 0.9999452933119276 0.9999224763686584 0.9998980665417889 0.9998778749818985 0.9998652584906232 0.9998601483973704 0.9998601453445466 0.9998560293004637 0.9998527473651289 0.9998498493973622 0.9998471718970262 0.9998447810651138 0.9998428829619921 0.9998418356978624 0.9998423524233223 0.999844918987102 0.999855342612442 0.9998696437329702 0.9998419202583434 0.9990403708098986 0.9943181217575585 0.9800733240227542 0.9539675454174806 0.9234949740438105 0.8844303725132696 0.6940278682795314 8.428518382602517e-05 0.9999995224611326 0.870533429369268 0.00315102052101921 0.0021187019618275752 0.0020936663801450844 0.0020153002621725487 0.00196750207032365 0.001932388402260859 0.0019172961068012824 0.0019587727480845324 0.0019516591471497083 0.003265047326110717 0.9999438302801261 0.9999531584691805 0.9999480250049456 0.9999317427156615 0.9999101601110948 0.9998894992455764 0.999874010751157 0.9998651045317618 0.9998560292865025 0.001178788437149993 0.0008815644021709347 0.0010005693338461955 0.0010935440479754558 0.001168557577690555 0.0012408359016226663 0.0013178930764087353 0.0014334780242348658 0.0015040439689584999 0.0026386837136142685 0.9998487042592403 0.9998442542418605 0.9992637473204086 0.99560984372341 0.9834875539102518 0.9591735849988845 0.9276526849199228 0.8851576712305109 0.693570205155863 8.313284292489021e-05 0.9999990292621718 0.8538971641474976 0.0002961277473791098 2.0608476049677107e-06 1.961254521406412e-06 1.893397579520723e-06 1.8262717055707454e-06 1.7727674866456026e-06 1.7474892547093204e-06 1.777582362650082e-06 1.8951999974025632e-06 0.0003145660167422056 0.9999262837902968 0.9999484974455177 0.9999481576190721 0.999936559170615 0.9999182030763619 0.9998982342278357 0.9998811707392637 0.9998695057302343 0.9998527473447256 0.0008813706155067441 7.189855402828081e-07 4.814970846048062e-07 5.797272425747392e-07 6.654546479199066e-07 7.492094817368812e-07 8.422232034026381e-07 9.651277967028916e-07 1.143839930497251e-06 0.0002438541115201897 0.999832137761977 0.9998421137359014 0.9993875144285178 0.9963543761125687 0.9857829290400899 0.9630327628284734 0.9310150200761202 0.8855602994194184 0.6921483450282327 8.205188483029427e-05 0.999998539269083 0.8503668257961048 0.0002950211988132861 6.567591299180992e-08 1.1369412758406515e-09 1.1020490792824696e-09 1.0633559695857184e-09 1.0226305104160615e-09 9.93856564385045e-10 1.0005287387387297e-09 4.8793136258174705e-08 0.00030851583585532737 0.9999074886037097 0.9999434765705058 0.9999472402360062 0.9999390974269101 0.9999234653033852 0.999904604812376 0.9998867457108359 0.9998729815756953 0.9998498493715515 0.0010002994503554485 4.812281967205522e-07 3.0544132560788055e-10 2.0163302665944114e-10 2.472357890456412e-10 2.929928800655818e-10 3.4325765432932166e-10 4.1047793299791135e-10 2.9419000336959997e-08 0.0002391811321604757 0.9998142174232959 0.9998390605446177 0.999445154978725 0.9968112043637997 0.987319019603406 0.9658724970025506 0.9336351004684934 0.8855701428748205 0.689853583407025 8.102686031661122e-05 0.9999980494215868 0.8498635507070819 0.0004592614734476664 1.2940039089101624e-07 2.79239276343301e-11 4.583293401888617e-13 4.38707627548049e-13 4.174440594245738e-13 3.9737483956459396e-13 5.154087053333892e-12 4.65997464222588e-08 0.00030461099672139625 0.9998896982187677 0.9999387140825449 0.9999459340560304 0.999940406041231 0.9999270252284479 0.9999093302116829 0.9998911280682383 0.9998758220336263 0.9998471718666497 0.0010932060034922436 5.793564158166354e-07 2.0143347661082887e-10 1.0498397513383988e-13 6.806069668501198e-14 8.382956301921796e-14 1.0092437177535182e-13 2.3886621484544264e-12 2.817831061493965e-08 0.00023595719094239435 0.9997967238444845 0.9998359013244226 0.9994793982899214 0.9971023810049616 0.9883997159136743 0.9680125169007054 0.9356885400067998 0.8852524199382649 0.6869476126308599 8.004674000412688e-05 0.9999975596029449 0.8497655265382615 0.0005489491552006328 1.817249690806149e-07 4.236159224022182e-11 8.125289204504423e-15 1.3959763195548688e-16 1.2965755367147946e-16 4.674141970082835e-16 4.575225061765752e-12 4.530949023965749e-08 0.00030032715321651226 0.9998726144165403 0.9999339289111673 0.9999444030473614 0.9999410604013065 0.9999295868938469 0.9999130516536358 0.9998947927198732 0.9998783174274872 0.9998447810305248 0.0011681555577055284 6.649812042031354e-07 2.469636978879355e-10 6.795797626892515e-14 2.993656442657153e-17 1.892327029113485e-17 1.5366059927464625e-16 2.1730976839799583e-12 2.7377571736835255e-08 0.00023251910608587125 0.9997791927882722 0.9998324934308365 0.9995027697033487 0.9973158337481309 0.9892331970750567 0.9697571003922901 0.9374212498620847 0.8847927013662229 0.6838454701124379 7.9105069774505e-05 0.9999970698049845 0.8497629652970544 0.0006159192314065647 2.249977673284247e-07 5.60725616840677e-11 1.08502629539394e-14 1.8068561692708155e-18 6.234109089792594e-20 3.2747475657238123e-16 4.371084372262146e-12 4.3937555782911686e-08 0.0002956960090437371 0.9998563684556702 0.9999288402975669 0.9999425788977191 0.9999412903183796 0.9999315931119911 0.9999162664736466 0.9998981775233124 0.9998807641519422 0.9998428829232203 0.001240366111565583 7.486231256633904e-07 2.926383344253403e-10 8.36904659054821e-14 1.888298451411845e-17 1.8871788402773333e-20 1.2314769562966585e-16 2.0764894369733782e-12 2.6545125912885475e-08 0.00022888578366578484 0.9997615851221803 0.9998285080488901 0.99952248794844 0.9975011240003415 0.9899760328494643 0.971372732842183 0.9391214521634808 0.884478927331884 0.6810960039969808 7.820053823291447e-05 0.9999965799374464 0.8497694538355952 0.000670166423178915 2.647121311768528e-07 6.915634936666396e-11 1.3819054492144406e-14 2.2375051452390094e-16 1.8472403936193347e-16 4.557698628274794e-16 4.158987050659414e-12 4.2486522525827474e-08 0.0002907125611002727 0.9998409698388702 0.9999229803437181 0.9999402382912888 0.9999411237538718 0.9999332808622982 0.999919341778221 0.9999016853420201 0.9998835037538263 0.9998418356547092 0.0013173434201679702 8.414973644401849e-07 3.4280044835051147e-10 1.0073988288533628e-13 1.531352392624487e-16 1.2269673344944316e-16 2.306122733019819e-16 1.977711864309347e-12 2.5678807099949424e-08 0.00022503953845094183 0.9997437303909551 0.9998232763126867 0.9995431631162232 0.9976931567177878 0.9907454966080209 0.9730937643650607 0.9410991540883821 0.8846852458491153 0.6793550061273631 7.733646509887712e-05 0.9999960902147967 0.8500131270188778 0.0007424724698787985 3.12729709241728e-07 8.899278201300935e-11 3.5567337523004217e-12 3.140950121837738e-12 2.7285375264579185e-12 2.3101241845456156e-12 5.819131310554568e-12 4.094856666907314e-08 0.00028532489035713144 0.9998266137642716 0.9999157989007866 0.9999369729738291 0.9999403952610537 0.9999346984377355 0.9999225061072837 0.9999057049162371 0.999886944447797 0.9998423523752936 0.001432809604632655 9.6419830790629e-07 4.0986459989933996e-10 2.3824060916297056e-12 2.1672562998155945e-12 2.0708224030893383e-12 1.9722266561375497e-12 3.74502306455849e-12 2.476700860616269e-08 0.00022090751617253113 0.9997254278228094 0.9998155750285446 0.9995683842636265 0.9979182483981364 0.991630579462916 0.9751162926825935 0.9436656914310608 0.8858488388404884 0.6793492816928502 7.65207731381928e-05 0.999995597740587 0.8501092994451409 0.0007754937260999408 4.1100531510527616e-07 3.9138754472592476e-08 3.647499357927612e-08 3.360813986743238e-08 3.0504046141024965e-08 2.717372535294046e-08 2.3530319025863114e-08 5.847735379829202e-08 0.00027943455262091665 0.9998131914248736 0.9999064102201853 0.9999321252317878 0.9999386744881507 0.9999356392231235 0.9999257725977139 0.9999105321543652 0.999891816424458 0.9998449189337151 0.0015032451393125466 1.1425681212329673e-06 2.9368156901845537e-08 2.812893690171151e-08 2.7328901755292213e-08 2.6497199177209354e-08 2.5631667138962452e-08 2.4720718858000435e-08 4.749303115206446e-08 0.0002163294718433514 0.9997060409363141 0.9998031971767841 0.9996007723798063 0.9981935064022507 0.9926851766994116 0.9775767232363105 0.9470982831307017 0.8884310336661848 0.6818281589801379 7.576472361793456e-05 0.9999951170967644 0.860875693145562 0.0017145610836581955 0.00026860135283262074 0.0002607058228713295 0.0002518173887706359 0.0002414406415060231 0.0002296263873206975 0.00021616190151099737 0.00020024555051042757 0.00017908699986765708 0.0004012107142458671 0.9998059198539159 0.9998964239220391 0.9999250060404716 0.9999351950018698 0.9999355091922132 0.9999287374057558 0.9999161645019832 0.9998986826915303 0.9998553425495457 0.002636878340872515 0.00024364704255663377 0.00023897642751346282 0.0002357524751662883 0.00023231437671433278 0.00022868104376806602 0.00022483478824643146 0.00022070275460082662 0.00021612473939274386 0.0004211024856951946 0.9996864274231776 0.999779880234768 0.999638396375173 0.9985177794137133 0.9939069604171087 0.9805131341966355 0.9515806887674805 0.8928530888666486 0.6875009385696468 7.508158297541181e-05 0.9999946066307176 0.8745393992691824 0.874512768156491 0.8744774705846765 0.87443002806457 0.8743751076973376 0.8743135823309344 0.8742462868684551 0.874172041190451 0.8740734595829109 0.8735752494006489 0.8326961394234088 0.9998280941078979 0.999884413515945 0.9999145375191469 0.9999286459977731 0.9999331065240953 0.9999303575336531 0.9999215345633167 0.9999081673250653 0.9998696436621568 0.9998487042268929 0.9998321376399267 0.9998142172933853 0.9997967237051807 0.9997791926374381 0.9997615849563283 0.9997437302044909 0.9997254276060936 0.9997060406703367 0.9996864270623598 0.9996863767391839 0.9997480982769463 0.9996719084670379 0.9988583201504442 0.9952217935508851 0.9838296967225748 0.9571353421357964 0.8994118786386629 0.6969718350632307 7.448423630121567e-05 0.9999941722937153 0.913692182110779 0.8907125926074279 0.886577948195117 0.8842581543272473 0.8828657753311011 0.881874299126886 0.8810560532275981 0.8802481262285329 0.879268149022223 0.877666267616168 0.8448604745014889 0.942376319031256 0.9845434091957384 0.9943731806928001 0.9977233900707931 0.9989916542709601 0.9995107202710247 0.9997276732827005 0.9998220804123412 0.9998416626049069 0.9998440939604519 0.9998419874285245 0.9998389437120382 0.9998357875368172 0.9998323799475192 0.9998283938918789 0.9998231617015071 0.9998154615337905 0.9998030882952385 0.999779784668765 0.9997480284539881 0.9997476933644804 0.9997022144284027 0.9991678686455969 0.9964978366660695 0.9873017475467105 0.9635787137671618 0.908200673103698 0.7106896219156684 7.39830691161406e-05 0.9999937164558437 0.9349682312404602 0.9107738741227827 0.9002617477397178 0.8954293016551436 0.8924514911970877 0.890379319279975 0.888699913209467 0.8870934744813003 0.8852793348696923 0.8827466046877842 0.8634463135764862 0.9030919521465463 0.9469335275210015 0.9726683931258839 0.9857378366544889 0.9923922674886578 0.9958162904706325 0.9976133534198669 0.9985455951435046 0.9990366508304741 0.9992610190501477 0.9993853328676289 0.9994432385721882 0.9994776080711975 0.9995010468614179 0.999520812099626 0.9995415409501636 0.9995668473649744 0.999599379904855 0.9996372310250697 0.9996710471112923 0.9997016801885373 0.9997000285458966 0.9993966626433074 0.9975988376479679 0.9906355439902289 0.9705370047927524 0.9190610944160098 0.7289245792644771 7.358389482414083e-05 0.9999932313653893 0.9507363250965613 0.9267280526509373 0.9144100929336747 0.907400858656005 0.9030303656368556 0.8999300688751783 0.8974295911139926 0.8950924726789276 0.8925712494399867 0.8894523211910078 0.878359590817833 0.8869445753882697 0.9127905087653199 0.9393956112545169 0.9598360319630089 0.9737927230567418 0.9828601744407308 0.9885924128010026 0.9921551445813787 0.9942963936719506 0.9955926528871814 0.9963398831089839 0.9967982925782641 0.9970903768193032 0.997304387999754 0.9974901137660852 0.9976826302525036 0.9979084030487938 0.9981846645971959 0.9985103212385948 0.9988525339401763 0.9991638104184044 0.9993942415609007 0.9993885464181234 0.9983743283693904 0.9935352953176865 0.9775141631994506 0.9315778158008429 0.7518062177300893 7.328675406707698e-05 0.9999927228973264 0.9622837543383013 0.9407607432031986 0.9279499416191868 0.9199591523053983 0.914608503259041 0.9107113887494607 0.9075428381342756 0.9046218571334804 0.9015830257277696 0.8980840231164116 0.8911789145174182 0.888480131790468 0.8961886019275309 0.9114865895458646 0.9289013701646585 0.9448254637158111 0.957824240538233 0.9677417836548305 0.9749474871684127 0.9800027033176703 0.9834263623038397 0.9857281488508489 0.9872683331986196 0.9883515659138977 0.9891866984605977 0.9899308997454802 0.9907019865822496 0.9915894452942149 0.9926475676408257 0.9938741869459355 0.9951949468273388 0.9964773910801537 0.9975845403461615 0.9983658374337203 0.9983506789337024 0.9955957772874575 0.9839192542167893 0.9451286363582431 0.7792111713590415 7.308519250999747e-05 0.9999912679558941 0.9715707574034993 0.9532804979018903 0.9412698147150883 0.9331338650060071 0.9273781579635255 0.9230296237738115 0.9194363512518707 0.9161297815229149 0.9127566022795967 0.9090332932979551 0.9038958981177707 0.8986968409132596 0.8968499454142518 0.900164645890