# vtk DataFile Version 3.0
vtk output
ASCII
DATASET RECTILINEAR_GRID
DIMENSIONS 41 41 1
X_COORDINATES 41 double
0 1 2 3 4 5 6 7 8 9 10 11 12 13 14 15 16 17 18 19 20 21 22 23 24 25 26 27 28 29 30 31 32 33 34 35 36 37 38 39 40 
Y_COORDINATES 41 double
0 1 2 3 4 5 6 7 8 9 10 11 12 13 14 15 16 17 18 19 20 21 22 23 24 25 26 27 28 29 30 31 32 33 34 35 36 37 38 39 40 
Z_COORDINATES 1 double
0
POINT_DATA 1681
FIELD FieldData 1
Concentracao 1 1681 double
1.0 1.0 0.9999999999996656 0.9999999999987002 0.9999999999970585 0.9999999999947672 0.9999999999918351 0.9999999999882646 0.9999999999840558 0.9999999999792105 0.9999999999736974 0.9999999999676855 0.9999999999613115 0.9999999999558642 0.9999999999501366 0.999999999944037 0.9999999999376589 0.9999999999310434 0.9999999999242314 0.9999999999170809 0.9999999999026666 0.9999995222551965 0.9999990288680619 0.9999985386926312 0.9999980486634275 0.9999975586631926 0.9999970686836452 0.9999965786344924 0.9999960887302816 0.9999955960734894 0.9999951152514119 0.9999946045960321 0.9999941700977785 0.9999937140907482 0.9999932287764616 0.9999926676026077 0.9999802410971961 0.9992181707948443 0.9803720145211929 0.7814147946923898 8.211786663020419e-05 1.0 0.9999999999995985 0.9999994275930748 0.999998699747888 0.9999979223659322 0.9999971300020879 0.9999963339379181 0.9999955371176856 0.9999947403130416 0.9999939527667243 0.9999931611482935 0.9999928994609909 0.9999935790282365 0.9999955201686785 0.9999965380768473 0.999997256046181 0.9999977356389766 0.9999980614320924 0.9999982605308056 0.9999982690603073 0.9999968227635764 0.8704776420336556 0.8538414201844442 0.8503111423686479 0.849807860688568 0.8497098322310312 0.849707270338822 0.8497137615538429 0.8499575249530391 0.8500537334851644 0.860824101953654 0.8744928671081229 0.9136601506670006 0.9349441081175672 0.9507180536612904 0.9622697049586317 0.9715478428414628 0.9786494058476536 0.9661025097724155 0.7704240192845364 8.118356508447833e-05 0.9999999999996655 0.9999994275807484 0.008560710015166484 0.004651125654414634 0.004192310298099272 0.0039540290116869105 0.0037373579073143805 0.003559302269331743 0.0034180255432470666 0.0034239248141075614 0.003282801734300829 0.006506095086020964 0.9999685571016869 0.9999793370377729 0.9999866333694452 0.9999903370474414 0.9999926274155182 0.9999940716858325 0.9999949192982266 0.9999953526371883 0.9999870748249966 0.002719606157796788 0.0002552757815198021 0.0002541461921860313 0.00039504100084311925 0.0004714363195447567 0.0005280964956018088 0.0005736616927097478 0.0006344906924541448 0.0006615506123897193 0.0014595186748838488 0.8744662509538029 0.8906720661950192 0.9107407863801581 0.9267008816712606 0.9407386870900732 0.9532474583638145 0.9640147216924103 0.9539308912097109 0.7560016483875394 8.001210536743837e-05 0.9999999999987 0.9999986997377504 0.004648024232674205 1.9434097914595493e-05 8.704461496516981e-06 7.771505739399497e-06 6.969478128709819e-06 6.301632280607825e-06 5.801370905400877e-06 5.607898097155624e-06 5.69647129569548e-06 0.00033484409104493656 0.9999391319919408 0.9999684092881678 0.9999780648639982 0.9999838951945003 0.9999875559995399 0.9999900099510793 0.9999916345495836 0.9999925110583912 0.9999809198885117 0.001822672554311625 1.5262930968103599e-06 4.864771248504671e-08 9.57829943812111e-08 1.3409350019523786e-07 1.654964176650851e-07 1.9407683619368535e-07 2.2852392667181204e-07 2.988215190230473e-07 0.00022711441137133903 0.8744309505355261 0.8865359012627002 0.900224768859692 0.9143783574131142 0.9279230681415697 0.9412252964096579 0.9534486331464124 0.9429760937208719 0.7381021595411634 7.857985994786233e-05 0.9999999999970582 0.9999979223535531 0.004189423633762931 8.69251945339278e-06 2.3670733193366863e-08 1.013609985210752e-08 8.596292968452215e-09 7.336110059825847e-09 6.363675525080708e-09 5.827262899934692e-09 5.76811986607476e-08 0.00032280195887146156 0.9999010063680791 0.9999540591823589 0.9999698607697922 0.9999778268617682 0.9999828533942856 0.9999862899543379 0.9999887232835345 0.9999904103562058 0.9999771100852842 0.001797197711821341 1.4461415828241885e-06 7.207055260468728e-10 1.7752536448175387e-11 2.6869631500091333e-11 3.539947313601499e-11 4.345048682265031e-11 5.5536877926063725e-11 2.7751157092646527e-08 0.00021940570009777586 0.8743835039124355 0.8842152524212918 0.8953905346011424 0.9073665249607291 0.9199291177299693 0.9330718512377717 0.9455729276473592 0.9324012377751439 0.7168380025681822 7.686390989179875e-05 0.9999999999947671 0.999997129987761 0.003951288782449855 7.760733347828137e-06 1.0115089571710074e-08 1.9699566041104678e-11 7.901351491952166e-12 6.2951201148445946e-12 5.056944319923625e-12 9.713911518393357e-12 5.133717316990654e-08 0.0003200864840276526 0.9998594104770263 0.9999386773431418 0.9999612210454618 0.9999719656125486 0.9999784710314342 0.9999829405654884 0.9999862297432438 0.9999887415017596 0.9999737620892096 0.0017263893468469562 1.3905644373967885e-06 6.944666269373016e-10 2.480407159463799e-13 4.4206662665775364e-15 5.882096446013479e-15 7.43300697720776e-15 2.0901270776152826e-12 2.554606660470839e-08 0.000210515887797902 0.8743285777258903 0.8828223604126565 0.8924116200480597 0.9029944002111204 0.9145758117885087 0.9272835673892046 0.9393412425798475 0.9214684075601527 0.6926218650860126 7.48503404576171e-05 0.9999999999918349 0.9999963339218677 0.003734759530947323 6.959786940927811e-06 8.57836891986797e-09 7.879443147410624e-12 1.1541888137623826e-14 4.266767792718995e-15 3.5389307244501134e-15 5.3279863120864506e-12 5.029182419147571e-08 0.00031683279692432977 0.9998156305808511 0.9999222735860845 0.9999522802417629 0.9999661224745535 0.9999742973380773 0.9999798741177949 0.9999840417075079 0.999987345572523 0.9999707371343157 0.0016821782051483435 1.3362084094430161e-06 6.663906832741202e-10 2.356825000602874e-13 6.434857114164818e-17 8.382646364517361e-19 1.0753618448142573e-16 1.806032024363759e-12 2.3169346651602212e-08 0.00020013705524401932 0.874267020700252 0.88183048901473 0.8903386291630304 0.8998927845860618 0.9106746263701107 0.9228690892138273 0.9339382468500869 0.909637487042885 0.66625176937633 7.254334128744893e-05 0.9999999999882645 0.9999955370999685 0.0035568209989814657 6.292846338543629e-06 7.3207729724970986e-09 6.277580976397768e-12 4.2519433155811235e-15 4.82793269436829e-18 4.050431676690538e-16 5.137604986054816e-12 4.909711770783036e-08 0.00031304584810101847 0.9997715280810903 0.9999048520954845 0.9999427544491928 0.9999600587269679 0.9999701149393543 0.9999769128749971 0.9999820018004404 0.9999860835485471 0.9999680265013894 0.0016491452317049502 1.2924555983011935e-06 6.375378388440077e-10 2.2274104591741635e-13 5.926118985254936e-17 2.5014919538446026e-20 8.589881617513e-17 1.5271819632867415e-12 2.062328931257282e-08 0.00018832083106325685 0.8741990200918467 0.8810111461960228 0.888657536869358 0.8973893273274189 0.9074940562136721 0.9191419916690269 0.928720619227635 0.8966844705124969 0.6389364887013597 6.99740181317578e-05 0.9999999999840556 0.9999947402936703 0.0034156363096149475 5.793260811479324e-06 6.350336007291263e-09 5.042816963775513e-12 3.526368006742043e-15 4.0340774116246084e-16 7.621824150391927e-16 4.929285709963129e-12 4.775218602499418e-08 0.00030871759795125944 0.9997284264507765 0.9998855093153156 0.9999319077043564 0.9999532280641612 0.9999655291458566 0.9999737624339702 0.9999798899186955 0.9999848020649212 0.9999657260699876 0.001633559307097049 1.2699155920957252e-06 6.166690767262061e-10 2.1071774437759054e-13 2.306390577012104e-16 1.6428865768844265e-16 2.1863956822324673e-16 1.2510408019582107e-12 1.7929026725971838e-08 0.00017485447281033006 0.8741126796874595 0.8801902162687493 0.887036582832681 0.8950332626901226 0.9045290035821102 0.9155767277363931 0.9232213864632827 0.8828010269027271 0.6121891117577776 6.720419226324928e-05 0.9999999999792102 0.9999939527455198 0.0034215163583165473 5.600008535550916e-06 5.814964938590174e-09 9.685661342683624e-12 5.311930942596343e-12 5.121939277263696e-12 4.914051186816417e-12 9.381489253920385e-12 4.6244315235352794e-08 0.00030376681540857494 0.9996874300902404 0.9998622744173185 0.9999181550728079 0.9999445544578343 0.999959818436444 0.999969928624829 0.9999773593092238 0.999983285291073 0.9999640615522442 0.0016666168697380653 1.2883210722823083e-06 6.183136440670536e-10 3.0847748692313575e-12 2.74374898948159e-12 2.599579727715352e-12 2.4506869765448347e-12 3.2736377016358717e-12 1.5036023916626475e-08 0.0001589390540189768 0.8738566293361049 0.8790591914048519 0.8850861258876768 0.8923845135984971 0.9013276034595711 0.9117325288701029 0.917179405116666 0.8685897399850739 0.5876034185147462 6.432274083508151e-05 0.999999999973697 0.9999931611254443 0.0032804823269613017 5.688394364982813e-06 5.7566044880779754e-08 5.123445319787283e-08 5.019014311176978e-08 4.899663637735542e-08 4.765307912108923e-08 4.614679795950397e-08 8.890535828834349e-08 0.0002979997902910629 0.9996491589996852 0.9998316782546429 0.9998983233543969 0.9999319001812564 0.9999516097314769 0.9999645080529429 0.9999737905565645 0.9999810698613137 0.9999630499498374 0.0016588419408626249 1.3706331961157873e-06 3.488543493989768e-08 3.3260949413724206e-08 3.217372962495718e-08 3.102113797590625e-08 2.980620837054964e-08 2.8522839308799322e-08 3.884022855383896e-08 0.00013782026363075834 0.8713544355924382 0.8757689163514549 0.8812964333639318 0.8883974039112288 0.8971691316379302 0.9071318761719244 0.9105107788314435 0.8548935398746433 0.5665636252543284 6.143421587411717e-05 0.9999999999676852 0.9999928994346208 0.0065006630064840315 0.00033450586672277886 0.0003224800149779787 0.000319764413988726 0.0003165105609234681 0.0003127234550924984 0.0003083950483380216 0.0003034441072394795 0.0002976770096745024 0.0005806534618755269 0.999615932195247 0.9997840516405951 0.999865325691723 0.9999106400150091 0.9999380069933921 0.9999556854593361 0.9999678981079325 0.9999772524496056 0.9999639754644692 0.0027754711304782457 0.0002664156793770556 0.0002610800549755763 0.0002571690576324434 0.000252878568290429 0.00024824184555852815 0.00024325315677171973 0.00023786033548262503 0.00023195878392602608 0.0003153503046075454 0.7855942668904257 0.808568211996346 0.8429785148963962 0.8678660610519146 0.8858602690830244 0.8995573169031426 0.902779642391136 0.8424141047381081 0.5499613520433921 5.864107740021515e-05 0.9999999999613113 0.9999935790182797 0.9999685573727318 0.9999391318407815 0.9999010062025665 0.9998594102965275 0.9998156303850724 0.999771527869997 0.9997284262247343 0.9996874298499157 0.9996491587459363 0.9996159319429767 0.9996159258135483 0.9997254273959503 0.9998131534324103 0.9998740775890792 0.9999138466753149 0.9999397814933155 0.9999573566664214 0.999969265185854 0.9999653688011126 0.9999438037018973 0.9999262562392467 0.9999074600723059 0.9998896686940554 0.999872583825796 0.9998563366422679 0.9998409364575721 0.9998265780447068 0.9998131514548583 0.9998058701770522 0.9998276150186238 0.9264665484075492 0.881688928826116 0.8688926513949613 0.8763777692273668 0.8898308635213593 0.8937755396958034 0.8314547677831952 0.5380374877283558 5.6027100222731445e-05 0.999999999955864 0.9999955201687588 0.9999793370282388 0.9999684091960495 0.999954059065771 0.999938677211925 0.9999222734441126 0.999904851944265 0.9998855091552294 0.9998622742476507 0.9998316780732174 0.9997840514448748 0.9997254272706918 0.9997254238535259 0.9997739483720116 0.9998310324976452 0.9998787584413155 0.9999139078706795 0.9999384069522131 0.9999557400351449 0.9999601413944864 0.9999531375341129 0.999948475312597 0.9999434535771061 0.999938690378945 0.9999339044797878 0.9999288149734101 0.9999229537263019 0.9999157701238683 0.9999063772544065 0.9998963814641985 0.999884224068298 0.979879197283561 0.9331249523573806 0.894281481436811 0.8791028489876163 0.8826327348679693 0.8845319304268382 0.822057326899137 0.5304157623131083 5.364674689473839e-05 0.9999999999501364 0.9999965380722378 0.9999866333465661 0.9999780647986823 0.9999698606804086 0.9999612209413731 0.9999522801271891 0.9999427543262539 0.9999319075738655 0.9999181549344498 0.999898323206412 0.9998653255307518 0.9998131532862233 0.9997739482921695 0.9997739456713634 0.9998040554845894 0.999844290473499 0.9998816826925696 0.9999114854792736 0.99993322893489 0.9999452747370494 0.9999480055880358 0.9999481373929126 0.9999472193989402 0.9999459126593041 0.9999443810517791 0.9999425561343845 0.9999402143761237 0.9999369470827218 0.9999320954723443 0.9999249672489728 0.9999144264872514 0.9925721578706027 0.9647580074974967 0.92416728910469 0.8927810159579386 0.8815155447320308 0.8769223959526338 0.8142735670680706 0.5263097718712011 5.152357036275745e-05 0.9999999999440368 0.9999972560412496 0.9999903370215443 0.9999838951429172 0.9999778267905297 0.9999719655275244 0.9999661223794042 0.9999600586237944 0.9999532279539458 0.9999445543405652 0.9999319000557764 0.9999106398787038 0.9998740774499558 0.9998310323849723 0.9998040554256606 0.9998040531788622 0.9998246729284074 0.9998538233990059 0.9998824130604977 0.9999061141339656 0.9999224550444168 0.9999317220658641 0.9999365386105121 0.9999390767375735 0.9999403851034823 0.9999410390905059 0.9999412684325814 0.9999411009146757 0.999940370704346 0.999938646500981 0.9999351590291918 0.9999285666036184 0.9969679065667723 0.9812807296967576 0.9485037277480364 0.9111409822836362 0.8866079623148996 0.8724199205462495 0.8082285464869376 0.5247685146382196 4.965570180811649e-05 0.9999999999376585 0.9999977356341604 0.9999926273926791 0.9999875559571413 0.9999828533359371 0.9999784709609146 0.9999742972582408 0.9999701148520369 0.999965529052003 0.9999598183361678 0.9999516096239855 0.9999380068767552 0.9999138465508233 0.9998787583225857 0.9998442903829238 0.9998246728822091 0.9998246708211149 0.9998392038665497 0.999860080771547 0.9998809527144057 0.9998980424639389 0.9999101372507815 0.9999181808870972 0.999923443434213 0.9999270034493591 0.9999295650119709 0.9999315708982045 0.999933257954652 0.9999346741549519 0.999935612087004 0.9999354753572247 0.9999330439731228 0.9986546909062237 0.9898730374734234 0.9657342834338343 0.9292700124314972 0.8959009838676586 0.8714246178151006 0.8039769670187119 0.5248573361708287 4.8024024401960277e-05 0.9999999999310428 0.999998061427565 0.9999940716659825 0.9999900099154748 0.9999862899056127 0.9999829405064574 0.9999798740506773 0.999976912801289 0.9999737623544649 0.9999699285396308 0.9999645079614007 0.9999556853598952 0.999939781384964 0.9999139077585757 0.999881682590927 0.9998538233246664 0.9998392038295087 0.9998392018141322 0.9998493130496237 0.9998636991130508 0.9998778486991982 0.9998894741834111 0.999898210013103 0.9999045811356936 0.9999093068334532 0.9999130283686483 0.9999162430585444 0.9999193179145722 0.9999224812317405 0.9999257455169313 0.9999287050528812 0.9999303052959994 0.9993541912849034 0.9943704042101015 0.9772260044668631 0.9447808748020272 0.9070112994844082 0.8733940623961389 0.8013658840167337 0.5257380044924246 4.6600103135064285e-05 0.9999999999242307 0.9999982605264569 0.9999949192801858 0.9999916345186188 0.9999887232420095 0.9999862296935084 0.9999840416513018 0.9999820017389045 0.9999798898524189 0.9999773592382318 0.9999737904802253 0.9999678980247039 0.9999573565745276 0.9999384068522107 0.9999114853788734 0.9998824129733278 0.9998600807101845 0.9998493130198011 0.9998493109168316 0.9998560534379348 0.9998652308341669 0.9998739840184582 0.9998811447217828 0.9998867201911271 0.9998911028528226 0.9998947676290657 0.9998981523588839 0.9999016598381292 0.9999056786456582 0.9999105042607692 0.9999161327167397 0.9999214892170637 0.999651413431147 0.9967654451612054 0.9846382854455695 0.9570014294255624 0.9180681746509954 0.8772981161118448 0.800005716448667 0.5266862084770225 4.535193204405633e-05 0.9999999999170798 0.9999982690555859 0.9999953526199687 0.999992511029537 0.999990410319691 0.9999887414595559 0.9999873455258532 0.9999860834981625 0.999984802011182 0.9999832852339431 0.9999810698001954 0.9999772523830491 0.9999692651103841 0.9999557399497008 0.9999332288422002 0.9999061140439951 0.99988095263978 0.9998636990625973 0.9998560534141432 0.9998560510569708 0.9998601201644777 0.999865076813618 0.9998694784289435 0.9998729545327548 0.9998757950854188 0.9998782903814188 0.9998807367601882 0.9998834756983599 0.999886915340504 0.9998917857846118 0.999898649345081 0.9999081245347125 0.9997847887554188 0.9980235753565471 0.9893164420516231 0.96608039433443 0.9279114344700415 0.8820315108975921 0.7993459683018883 0.5270953163733783 4.424768474156436e-05 0.9999999999026653 0.9999968227504409 0.9999870747673536 0.9999809198171943 0.9999771100017314 0.9999737619949853 0.9999707370301779 0.9999680263880164 0.9999657259483004 0.9999640614238156 0.9999630498171201 0.9999639753324181 0.999965368677076 0.9999601412892064 0.999945274637942 0.9999224549498095 0.9998980423803899 0.9998778486345817 0.9998652307928227 0.9998601201459414 0.999860117069 0.9998559999138802 0.9998527172252857 0.999849818142905 0.9998471389763497 0.9998447456025445 0.9998428436480095 0.999841790847928 0.9998423005178657 0.9998448595053947 0.9998552802629613 0.99986958049967 0.999819495249867 0.9986946535173191 0.9921572212808849 0.9725408244833473 0.9359872297872802 0.8866795992259249 0.7988000045523999 0.5265003950026287 4.325796861920111e-05 0.9999995222518495 0.8704766955710004 0.002714195320931955 0.0018191921243716693 0.0017937885658155083 0.001723115981238043 0.001678981501737608 0.0016460011630071783 0.0016304369385148245 0.0016634325760356763 0.0016556878201632564 0.002770341746696589 0.9999438033871069 0.9999531373553906 0.9999480054599899 0.9999317219578493 0.999910137157217 0.9998894741073907 0.9998739839638354 0.999865076781595 0.9998559998991112 0.0009754856595823968 0.000726480223291839 0.0008213166445140762 0.0008942084488314555 0.0009520143622319302 0.0010073277058482229 0.001066392224508974 0.001156697223122938 0.0012110558331999376 0.002124387427232349 0.9998486234799694 0.999830297456801 0.9990034229756227 0.9938862061545757 0.9769395936868444 0.9422155723043838 0.8906316807378809 0.797877252795603 0.524612269573921 4.23570717847738e-05 0.9999990288623491 0.8538407211077312 0.00025470345932489486 1.5204911611307318e-06 1.440709798249702e-06 1.3853483913401345e-06 1.3311887541144019e-06 1.2875878216606458e-06 1.2651232394035228e-06 1.2834636631482774e-06 1.365497909746784e-06 0.00026592585802971144 0.9999262559901636 0.9999484751286543 0.9999481372477401 0.9999365384894632 0.9999181807831294 0.9998982099268121 0.9998811446563007 0.9998694783864113 0.9998527172019719 0.0007262863806780103 4.897654585963168e-07 3.2552880021254435e-07 3.8910995246887006e-07 4.43515639882951e-07 4.959943307680696e-07 5.54127951457769e-07 6.316516924579857e-07 7.454808391786152e-07 0.0001953278216694277 0.9998320423417913 0.9998296975439467 0.9991745883176354 0.994878201669782 0.9798853030438056 0.9467760498521292 0.8936121296915601 0.7962749864504791 0.5213605169779489 4.1523721790458554e-05 0.9999985386846206 0.8503104428519171 0.0002535723354200774 4.842788829406348e-08 7.166764488393117e-10 6.906010046884261e-10 6.626783891582797e-10 6.339793343596145e-10 6.132221354705268e-10 6.14862744577182e-10 3.475647118403216e-08 0.000260597068138878 0.9999074598098142 0.99994345338132 0.9999472192409767 0.9999390766042406 0.9999234433193991 0.9999045810390566 0.9998867201154122 0.9998729544808398 0.9998498181100068 0.0008210466935685572 3.2530605760060283e-07 1.705965813464915e-10 1.1145642182209938e-10 1.3529827677837347e-10 1.5880679088496408e-10 1.8441263487874077e-10 2.1884258249359084e-10 1.8869862542402976e-08 0.00019125515522828656 0.9998140975393329 0.9998272652900453 0.9992524384894861 0.9954786486435672 0.9818235982371665 0.950029845965125 0.8956221064345067 0.7939308406581502 0.516908971275466 4.074152276575957e-05 0.9999980486531326 0.8498071607543114 0.0003941393340981702 9.534702276482718e-08 1.763154102648674e-11 2.462144944448168e-13 2.3395144671838463e-13 2.211027950715069e-13 2.0916652289687178e-13 3.0673706700285788e-12 3.313729231907754e-08 0.0002566860132926581 0.999889668415228 0.9999386901694794 0.9999459124872304 0.9999403849565214 0.9999270033218102 0.999909306724733 0.9998911027655887 0.9998757950230596 0.9998471389311027 0.0008938703146850308 3.8880391982264307e-07 1.11320238906439e-10 4.7930940908997156e-14 3.0680734613263594e-14 3.733047005153508e-14 4.443632219971714e-14 1.2213983622967946e-12 1.800870488560576e-08 0.00018802895844887246 0.9997965642994966 0.9998242554740582 0.9992971189195118 0.9958512595196618 0.9831521745822511 0.9523730933223014 0.8968863478111307 0.7910262378615747 0.5116573343717925 3.999927092011671e-05 0.9999975586506139 0.849709132240628 0.0004703480348010023 1.3347632505164107e-07 2.6684691415968808e-11 4.380223736820513e-15 6.376280425286831e-17 5.872259490176327e-17 2.28839153174287e-16 2.7283559113891824e-12 3.2052142122274474e-08 0.0002523954622585056 0.9998725835247845 0.9999339042513445 0.9999443808609519 0.9999410389252894 0.9999295648670631 0.999913028243528 0.9998947675265515 0.9998782903052511 0.9998447455395164 0.0009516122299998099 4.4312629429615594e-07 1.3511384732964082e-10 3.0623208500061026e-14 1.114646243209147e-17 6.944501392913205e-18 6.218804352240044e-17 1.1086561591910076e-12 1.7372845832958237e-08 0.00018458808433352081 0.9997789682131789 0.9998207833896917 0.9993264075702596 0.9961177326149672 0.9841534685408934 0.9542191078340414 0.8977826330798868 0.7879730821465286 0.5062124697573509 3.929095396830232e-05 0.9999970686687839 0.8497065703545951 0.0005268634487701472 1.6472611830638036e-07 3.515311967497109e-11 5.82769052222337e-15 8.286003555048606e-19 2.4741308578467216e-20 1.6305107386845265e-16 2.5847409709985727e-12 3.0901786185333706e-08 0.0002477586877819367 0.9998563363083744 0.9999288147153602 0.9999425559146301 0.9999412682393123 0.9999315707266119 0.9999162429085127 0.9998981522336993 0.9998807366639062 0.9998428435588316 0.0010068577771196986 4.955137337740209e-07 1.5856800564887085e-10 3.725329038250108e-14 6.926041864667721e-18 6.023443864063313e-21 5.006194006634931e-17 1.0478215727384282e-12 1.671451754395442e-08 0.00018095260721663354 0.9997612516037326 0.9998166307647318 0.999350839896158 0.99634859245498 0.9850501162319514 0.9559589215333848 0.8988002876121007 0.7853840905983935 0.501357400574047 3.861605576335778e-05 0.9999965786173487 0.8497130616161849 0.0005723067170595058 1.931632037100316e-07 4.3144710495412955e-11 7.36328130695243e-15 1.0629955921628874e-16 8.486376355871467e-17 2.1662654155385821e-16 2.436431345736991e-12 2.9689262814104617e-08 0.00024276995043197275 0.999840936069487 0.9999229534171602 0.9999402141068613 0.999941100673856 0.9999332577383624 0.9999193177236693 0.9999016596769289 0.9998834755714532 0.9998417907220469 0.0010658423965310975 5.535348555862384e-07 1.841065209070731e-10 4.433483798910006e-14 6.192011203621166e-17 4.98314963356651e-17 9.230376968959655e-17 9.861123130372821e-13 1.603251136087199e-08 0.00017710425557278928 0.9997432078673258 0.9998112048834578 0.999377484761277 0.9965956385587227 0.9860181081225912 0.9579624553871524 0.9005031354673652 0.7840382477620981 0.4980146217150454 3.797900954095343e-05 0.9999960887108553 0.8499568265167868 0.0006329739438805911 2.2743532618825894e-07 5.513923789592087e-11 2.0726108584456523e-12 1.7902298753389692e-12 1.5131250842023143e-12 1.2388288780681658e-12 3.2497713601949422e-12 2.840848757105366e-08 0.0002373770814703527 0.9998265775568252 0.999915769718044 0.9999369467205296 0.9999403703757201 0.9999346738578277 0.999922480969006 0.9999056784236792 0.99988691516552 0.9998423003464759 0.0011560285724505253 6.308941988026256e-07 2.1843412635676047e-10 1.2173876051082037e-12 1.104914183153618e-12 1.0442182594778318e-12 9.826528949425817e-13 1.8420778760412368e-12 1.5317796837493004e-08 0.00017296991244692463 0.9997245577320542 0.9998033444038147 0.999412316932436 0.996900056736082 0.9871991735063856 0.9605606191562305 0.9034829218838608 0.7848277637268326 0.4972050067727415 3.738890524221875e-05 0.9999955960517675 0.8500530352723596 0.0006599498922476001 2.973678669218288e-07 2.7600174655237935e-08 2.540167052798501e-08 2.3032102502712456e-08 2.049418792613833e-08 1.7809206431459883e-08 1.4927161457407238e-08 3.8634463510239226e-08 0.00023147541258206032 0.9998131507575977 0.9999063766436866 0.9999320949159294 0.9999386459925091 0.9999356116287662 0.9999257451154618 0.9999105039261008 0.9998917855272208 0.999844859282412 0.0012102567541122473 7.4444692523449e-07 1.8829106668608607e-08 1.7969146977558488e-08 1.7333992494983074e-08 1.6676408383676803e-08 1.5995189950206136e-08 1.528132481422164e-08 2.9047105341963902e-08 0.00016837985719902188 0.9997044575527231 0.99979085096397 0.9994605442020033 0.9972908322788924 0.9886862895659675 0.9640000590502202 0.9082791728077695 0.7886719147286474 0.4999988794742925 3.685812979081456e-05 0.9999951152275037 0.8608234701478615 0.0014558613091823723 0.00022650942239418146 0.0002188031623778956 0.0002099133308585532 0.00019953446971730535 0.00018771821885081195 0.0001742518416814104 0.00015833652009776455 0.0001372193382048003 0.0003143264120185976 0.9998058689621959 0.9998963803531492 0.9999249662156319 0.9999351580906002 0.9999354745250917 0.9999287043397848 0.9999161321336533 0.9998986489129188 0.9998552800215578 0.0021225808608769307 0.00019512113272193238 0.00019105038833374947 0.00018782418230696383 0.00018438329717955377 0.00018074781152712928 0.0001768994515477124 0.0001727650992817626 0.00016817506642156774 0.00032522786523086285 0.9996829132649983 0.9997673194573979 0.9995218480591053 0.9977700801593012 0.990485479993373 0.9683665163936641 0.9152521259797062 0.7963828792747903 0.507453321483436 3.640075697490228e-05 0.9999946045698127 0.8744923047633862 0.8744656663275583 0.8744303658428928 0.8743829191601438 0.8743279928592668 0.8742664343006198 0.8741983979203041 0.8741115140289722 0.8738493975413926 0.8712848458654656 0.7846176810087258 0.9998276030806158 0.9998842185804 0.999914422863737 0.9999285638575098 0.999933041800846 0.9999303035674951 0.9999214878802982 0.9999081235218038 0.9998695800364495 0.9998486230675538 0.9998320417492105 0.9998140968013057 0.9997965633533898 0.9997789669705416 0.9997612499334243 0.9997432055629994 0.9997245544362786 0.9997044525278045 0.9996829041988751 0.9996778933530036 0.9997333889568285 0.9995838019034444 0.9982902497282055 0.9924849022950352 0.9735124347320832 0.9244439314702343 0.8084986096590813 0.5205413911058364 3.603000449519152e-05 0.9999941700697306 0.9136597840719209 0.8906715699584123 0.8865353758503958 0.8842147145021758 0.8828218153504929 0.8818299373218673 0.881010549509286 0.8801890389608876 0.8790521399620024 0.8757086626248344 0.8078100849135856 0.9261155501900212 0.9797723253744091 0.9925304740027157 0.9969502432059495 0.9986467373083144 0.9993504546313323 0.9996495708624933 0.9997838660010637 0.9998189473847907 0.9998299570760215 0.9998294298051175 0.9998270182263311 0.9998240154683331 0.9998205446138135 0.9998163910346523 0.9998109643776644 0.9998031058414505 0.9997906205500662 0.999767113217579 0.9997332488812546 0.9997287615727766 0.9996381129064912 0.9987743599499386 0.9944712812787203 0.979056862620554 0.9354931889955993 0.8251343068669007 0.5400871636926196 3.5755769040742274e-05 0.9999937140606805 0.9349438192768705 0.9107403805292932 0.9002243089827318 0.8953900496265385 0.8924111200976805 0.8903381160805026 0.8886569598265373 0.8870353539549096 0.8850794993484987 0.8812494857269094 0.842542768138062 0.88122198061314 0.9328153042514749 0.9645776193911911 0.9811778790959228 0.9898142985067679 0.9943363618489344 0.9967452843097993 0.9980110714498805 0.9986864694022052 0.998997435302889 0.9991698127345204 0.9992482553564168 0.999293223983733 0.9993226730175073 0.9993472219941011 0.9993739980926566 0.9994090284696643 0.9994575775939609 0.9995193740850243 0.99958198782124 0.9996370004954263 0.999629773641911 0.9991344183591465 0.9962134149102735 0.9844850916181491 0.9476717578098007 0.8459019859107049 0.5667185297835126 3.558223030821962e-05 0.9999932287403465 0.9507178316507047 0.9267005467243847 0.9143779628477848 0.9073660959758832 0.9029939490529567 0.8998923079526671 0.8973887259639549 0.8950317784721585 0.8923777810281539 0.8883617351325711 0.8676287065734537 0.868490182075912 0.8938644750454519 0.9238200777286548 0.9482426494204182 0.965546963214125 0.9770940178948025 0.984545083450486 0.9892493485623169 0.9921068865494838 0.9938464971888785 0.9948448131144626 0.9954489816567688 0.9958237562821872 0.9960915932204614 0.9963235417041895 0.9965717929956103 0.996877866443972 0.9972710169128863 0.997753468141764 0.9982774483183644 0.9987654501342526 0.9991291290447607 0.999112982147683 0.9974519696624289 0.9892697547558909 0.9600249151515808 0.8699170217816679 0.6008925519316672 3.5506272732261995e-05 0.9999926641461105 0.9622695293119388 0.9407384097214696 0.9279227258805663 0.9199287250173261 0.9145753529716792 0.9106739972623477 0.9074928238217085 0.9045256210090493 0.9013170990728621 0.8971347565659364 0.8857218002677534 0.8760861397663433 0.8786985825832254 0.8923395845320959 0.9107209192709564 0.9289007578944448 0.9444701221102132 0.9567448773503079 0.9658685292789572 0.9723631091378815 0.9767862294780408 0.9797484785463186 0.9816973927293338 0.9830326628786283 0.9840384657192227 0.98493896695793 0.985911516349994 0.9870990415988773 0.988595423463857 0.9904069652229051 0.9924211697809266 0.9944232002165836 0.9961800939673252 0.9974322570862075 0.9973940602885191 0.9927040694167257 0.9714461892090376 0.8959165375201362 0.6426927420695308 3.551633924215567e-05 0.9999797013822012 0.9715471088969223 0.9532464812785475 0.9412239322093662 0.9330697726511334 0.9272800578231785 0.9228626416152182 0.9191296461382161 0.9155532430405446 0.9116894804102758 0.9070551002848566 0.8994100437236635 0.8895693522458052 0.8822437124732753 0.881024508276