# vtk DataFile Version 3.0
vtk output
ASCII
DATASET RECTILINEAR_GRID
DIMENSIONS 41 41 1
X_COORDINATES 41 double
0 1 2 3 4 5 6 7 8 9 10 11 12 13 14 15 16 17 18 19 20 21 22 23 24 25 26 27 28 29 30 31 32 33 34 35 36 37 38 39 40 
Y_COORDINATES 41 double
0 1 2 3 4 5 6 7 8 9 10 11 12 13 14 15 16 17 18 19 20 21 22 23 24 25 26 27 28 29 30 31 32 33 34 35 36 37 38 39 40 
Z_COORDINATES 1 double
0
POINT_DATA 1681
FIELD FieldData 1
Concentracao 1 1681 double
1.0 1.0000000000001572 0.9999999999994214 0.999999999998913 0.9999999999968637 0.9999999999948843 0.9999999999916838 0.9999999999883028 0.9999999999839161 0.9999999999791811 0.9999999999735473 0.9999999999675887 0.9999999999611409 0.9999999999556974 0.9999999999060237 0.9999999013705884 0.9999880295806078 0.9996761791420047 0.9967471910106983 0.9843507248384403 0.9555615086276963 0.9067691524757643 0.84036076670926 0.7556703092294136 0.6552028591230975 0.5458782513422503 0.43614974312169663 0.3339117220297076 0.24488558074054145 0.1718649381791631 0.11368371521821384 0.06738192321899407 0.03430339498576125 0.01361626949191914 0.004011933850155472 0.0008680995365693318 0.0001346389724331241 1.4319233716372427e-05 9.461157667223653e-07 2.9666300150177018e-08 7.598414040544206e-14 0.9999999999998752 0.9999999999994921 0.9999994233571511 0.9999986926944229 0.9999979125162344 0.9999971174423065 0.9999963187950973 0.9999955195069349 0.9999947203266732 0.9999939304294212 0.999993136536205 0.9999928723174422 0.9999935544823289 0.9999955030432756 0.9999965247790493 0.9999971125743392 0.9999825718782638 0.9995981091621402 0.9959583279394151 0.9797081046509298 0.9275622264287116 0.774111205299615 0.7052372809139594 0.6314383165682305 0.5465879373217861 0.4547107364285138 0.3626990565596167 0.27713388174299497 0.20288957663568874 0.14245965018898246 0.0965416770229956 0.06397385777135946 0.03168466036440881 0.012178641643540149 0.0034616096156319565 0.000726462905407646 0.00010958501183922225 1.1365051111714239e-05 7.334271204152886e-07 2.2480139750390205e-08 5.751457276360354e-14 0.9999999999998551 0.9999994233453294 0.001224597974296843 0.0006553261415654007 0.0005827335112784876 0.0005414398392275893 0.0005039585987719757 0.0004724870251756374 0.00044653934499288384 0.00044014175315711123 0.000414938103206727 0.0008099655446171427 0.9999683890934732 0.9999792293530703 0.9999865655433036 0.9999900279671744 0.9999664587701413 0.9993536596450959 0.9935133266638241 0.9639506997775428 0.8082934937761412 0.00011314853201899956 9.37640180687186e-06 7.405879554100272e-06 8.798655950460779e-06 7.759748845266088e-06 6.208012520931424e-06 4.6522315002526916e-06 3.4286260129456704e-06 2.303067297465148e-06 2.824503939044433e-06 0.041210541039468244 0.020965650323513267 0.0073592548191951 0.001967857586198158 0.000387080606326127 5.521543189730845e-05 5.444397914453375e-06 3.3579518523189844e-07 9.873256322562062e-09 2.574336273897698e-14 0.9999999999985171 0.9999986926838915 0.0006522005816496599 3.84921808971189e-07 1.678471989557644e-07 1.456675369028129e-07 1.2672863225889616e-07 1.1109460180735455e-07 9.910131864723521e-08 9.278077083203409e-08 9.107300804028059e-08 3.8014576038717654e-05 0.9999389552458067 0.9999682828265952 0.999977967516526 0.9999828544215738 0.9999230870847762 0.9986674180347068 0.9874917697793859 0.9302501712047816 0.6633590230544396 5.1132460861726776e-05 2.478188584294747e-09 7.460139295927927e-11 1.0452180377660328e-10 9.971600308469685e-11 8.138849568645617e-11 6.124613273397546e-11 4.4905676542920546e-11 3.227321170455278e-11 7.271445479215579e-08 0.0184908807775698 0.009317102048774544 0.0031550147465449103 0.0007854332001847227 0.000145648190768773 1.965869245879352e-05 1.847364432381751e-06 1.0915849480039425e-07 3.086982608402539e-09 8.442361243259262e-15 0.9999999999971847 0.9999979125040949 0.0005798363679068867 1.6618687283616548e-07 6.31375525719761e-11 2.6009897896293564e-11 2.1110276283274763e-11 1.7208991202374006e-11 1.4247246001975594e-11 1.2438441319421892e-11 6.540434981203308e-10 3.567592327928916e-05 0.9999007758103217 0.9999538483651688 0.999969442747856 0.999969480245126 0.9997466284894966 0.9966422181308987 0.9741957818663827 0.8735761709738179 0.5484169985594626 3.674588736257515e-05 1.5573350360197969e-09 4.882535059088248e-14 1.12105626505966e-15 1.1004373388840473e-15 9.03409407275422e-16 6.725773714043615e-16 4.864453798952439e-16 7.403314196853142e-14 2.235925629333587e-08 0.006283363262438816 0.003050707592346366 0.0010002218769361697 0.00023788489537324378 4.200643636289937e-05 5.432912054077856e-06 4.916491505213309e-07 2.8099465731962474e-08 7.704676371693416e-10 2.259097036063576e-15 0.999999999994628 0.9999971174276869 0.0005386899601568517 1.441957870517102e-07 2.5618211618579113e-11 6.888322925018678e-15 2.624454353486557e-15 1.9702659881049667e-15 1.4884313381744238e-15 7.43682492457624e-15 5.514298527003728e-10 3.2895570299345464e-05 0.9998517806824182 0.9999281796992487 0.9999372686182784 0.9998479711176236 0.9988299696202174 0.990636899733324 0.9476193892826444 0.79793942064945 0.4429263368524196 2.5410807372754338e-05 9.94199110518394e-10 2.9169828744832265e-14 6.965310615006574e-19 1.1216342498396824e-20 8.984078274272295e-21 6.4631910143200255e-21 5.3068195238664605e-20 1.7094869622625007e-14 5.563484552147657e-09 0.0017157073873247512 0.0008022059832538815 0.0002534859606210964 5.8263233856105183e-05 9.958853945798209e-06 1.2519237385477785e-06 1.1060020136036147e-07 6.186685396160137e-09 1.6608816745271455e-10 5.279916874951985e-16 0.9999999999918872 0.9999963187791667 0.0005013515601119817 1.2542510157077667e-07 2.0786666295420387e-11 2.571206165940276e-15 5.152774080877448e-19 1.7865572056133402e-19 1.5949287641868228e-19 4.758246677658648e-15 4.527882717214877e-10 2.9560281295684416e-05 0.9995949254110243 0.9996407849302209 0.999462151231681 0.998636840521306 0.9944631570183657 0.9745816165601656 0.9011043449568464 0.7058336280649976 0.34903437470795123 1.7540582655638135e-05 6.268175394174787e-10 1.727685929007657e-14 3.859707798601215e-19 7.380542151944482e-24 8.338531656004281e-26 7.907438886712318e-26 8.971807250668477e-21 3.3365029707459358e-15 1.1581384271925578e-09 0.00038899901243914873 0.00017566335723211704 5.401452725645984e-05 1.2157453555957198e-05 2.0462893626859954e-06 2.543805945728942e-07 2.2279509174731092e-08 1.23581221845821e-09 3.282177254509006e-11 1.1307954860894818e-16 0.999999999988141 0.9999955194890017 0.00046999778300635083 1.0993138962270852e-07 1.6940585141811705e-11 1.929601046174858e-15 1.7408503045020305e-19 2.685974099674691e-23 2.5348650438289743e-20 3.3920061733186313e-15 3.5342823069377805e-10 2.5705334333897412e-05 0.9972764568207754 0.9969199376188644 0.9955708296631155 0.9916187288458077 0.9789885188398507 0.93900386214798 0.8307684041215845 0.6044501020233031 0.2696504445275927 1.2046397921637673e-05 3.9529062929393476e-10 1.0171638119232024e-14 2.138431215471285e-19 3.800182111026913e-24 6.045490469461549e-29 3.447326950495504e-27 1.424982556573222e-21 5.580077998020908e-16 2.0544077963462249e-10 7.462676454814826e-05 3.279353174556546e-05 9.96589288294043e-06 2.2425868993666695e-06 3.798467358375032e-07 4.76469979636498e-08 4.209111799800988e-09 2.347946419370869e-10 6.237444378342645e-12 2.3026000130986742e-17 0.9999999999840444 0.9999947203073446 0.00044414266344805167 9.804473416860669e-08 1.4021090407037294e-11 1.4571815412553337e-15 1.5509813400895902e-19 2.4479837099532352e-20 3.029703921695618e-20 2.249567459549455e-15 2.5928935009641146e-10 2.136602488236931e-05 0.9845582829210103 0.9826647491300178 0.9777570005873896 0.9663930108190987 0.9392394038374634 0.8751050499474969 0.7391224594069574 0.5039895433677265 0.20681220948162424 8.381091892318387e-06 2.5543714010499784e-10 6.1338914098310825e-15 1.204464871124109e-19 2.9423368033286035e-24 3.3937046391111817e-25 1.1309945790948001e-25 1.9441565981723648e-22 7.983812784829837e-17 3.1022288705681373e-11 1.2112505526046783e-05 5.24864443598806e-06 1.6187870679629876e-06 3.754554921865595e-07 6.583713487346448e-08 8.533106254519956e-09 7.748457952504867e-10 4.4119653826547204e-11 1.1862212843599413e-12 4.596164208234009e-18 0.9999999999790794 0.9999939304080431 0.00043772528871861057 9.176934318111864e-08 1.2236591858268449e-11 7.254954711940577e-15 4.631121070578578e-15 3.294475061420518e-15 2.179621441737319e-15 2.686533321934399e-15 1.756397239734498e-10 1.6633676712642816e-05 0.940273851738622 0.9354044494862536 0.9249664921667143 0.903948084144885 0.8618795417879135 0.7801131199116315 0.6344857605218329 0.41376554099895185 0.16140995759220242 6.1863458338591134e-06 1.7689853406877518e-10 3.984421301083765e-15 9.323516021087592e-19 3.4868025615168634e-19 1.3070584207756523e-19 4.531502828117659e-20 1.4480001155749622e-20 9.463193989355324e-18 3.862568230089939e-12 1.6128010718614598e-06 7.073069391988736e-07 2.3227924279616572e-07 5.8153410359398074e-08 1.0950839834885457e-08 1.5065167250280192e-09 1.4346316554406158e-10 8.468113667483946e-12 2.333685139445819e-13 9.23806221773477e-19 0.9999999999736267 0.9999931365133476 0.0004126126198544504 9.005660669991993e-08 6.429795150699369e-10 5.414492737943092e-10 4.4388656580506677e-10 3.4577215756051884e-10 2.5302843810840915e-10 1.7087944419038497e-10 2.098890752201276e-10 1.1726450709046471e-05 0.8320807974608072 0.8254436331314234 0.8132965041309119 0.7886984504804098 0.7415290083493752 0.6584635079667571 0.5257149116884418 0.3400389756112724 0.13092202823570204 4.685188664196001e-06 1.338152921611184e-10 5.965574564748177e-13 2.771861312407039e-13 1.186748573868325e-13 4.686064335500795e-14 1.706929719126298e-14 5.70744420274593e-15 1.7330985133575237e-15 3.5593645669336903e-13 1.581063766395476e-07 7.523342585661848e-08 2.9023138257246886e-08 8.466724859056539e-09 1.7887548801720843e-09 2.6876436440209324e-10 2.7385482120826025e-11 1.7021306399128528e-12 4.8741188045036634e-14 1.9153883466296446e-19 0.9999999999675313 0.9999928722908482 0.0008044898968059016 3.768907005013109e-05 3.53524564467602e-05 3.25720922405495e-05 2.9236896693182982e-05 2.5383024274549616e-05 2.1049340233454533e-05 1.6335264056718736e-05 1.1469418697991783e-05 1.3772827169501266e-05 0.630545486878806 0.6317595282642435 0.6349324240061438 0.6218133928010199 0.5855899791664145 0.5192466423603367 0.41686944238823437 0.27982194818427375 0.12512333152377958 6.99623837091258e-06 2.934796893321961e-07 1.615325039951578e-07 8.060623337204485e-08 3.679455573033417e-08 1.5438871155756957e-08 5.955176051475524e-09 2.101532121243077e-09 6.710957383006353e-10 1.9087833872294986e-10 6.274436935062466e-09 4.68951178596076e-09 3.1432675140127445e-09 1.1759617643001041e-09 2.925255909913702e-10 4.932156472436568e-11 5.479006177180935e-12 3.6406561117727396e-13 1.098736322438101e-14 4.181028070833223e-20 0.9999999999611722 0.9999935544723683 0.9999683893666816 0.9999389550928904 0.9999007689079807 0.9998508844961647 0.9995736117521089 0.9970815276550494 0.9836110308828111 0.9373919997469808 0.8260938244412096 0.6218457123772654 0.4004562946745682 0.4002561653414985 0.4216085591345299 0.4297450041046873 0.41500806077720587 0.37468441057857094 0.3095506694976566 0.2216251522133589 0.11941410414384535 0.09405297328281424 0.06344205258255677 0.038021399424071074 0.020603687906924007 0.01016983444446145 0.004591122312812078 0.0018957545949142257 0.0007127846011505041 0.00024148827997696158 7.259008581197784e-05 1.8287725230111963e-05 2.0604032427561077e-06 2.3078367458137254e-07 2.1588173300858006e-08 1.7179872864978892e-09 1.1342027009906824e-10 6.019998196068693e-12 2.346990204347269e-13 5.036095944932715e-15 1.3592358972328116e-20 0.9999999999556833 0.9999955030433351 0.9999792293434291 0.9999682827325191 0.9999538355986747 0.9999268428435929 0.9996121602719968 0.9966763462077827 0.9815458112876521 0.9321563037874723 0.8189582696368647 0.6225953340054835 0.39377428017055777 0.27914253246277076 0.25864547038291474 0.26321530882175215 0.26124650249328174 0.2429077959820906 0.2074698941690877 0.15947673138269391 0.10620113307401714 0.07533154780247002 0.04963531414182127 0.02901112008617684 0.015347281384267207 0.007402060294980679 0.0032720667274658832 0.0013271750166016128 0.0004922089017355224 0.0001652896732978947 4.9410740439132e-05 1.217246187719082e-05 2.357337281135005e-06 3.4377563768451123e-07 4.1098551275683716e-08 3.937869406247811e-09 2.9512115250713746e-10 1.635456278061647e-11 6.007575183566524e-13 1.1054927055113435e-14 1.9380984108258778e-20 0.9999999998651337 0.9999965247178574 0.9999865653660405 0.9999779662545083 0.9999693652936142 0.9999335817488114 0.9994063371558208 0.9951844489003374 0.97622416488353 0.9209817866386335 0.8059643360496398 0.6250515330605074 0.41250574338904 0.25382542941076536 0.179564067123846 0.15711033090984686 0.15054028918799148 0.14121231159125727 0.12360447009671507 0.09880487074134015 0.07054655303810993 0.04829823888694554 0.030693558695039508 0.01751209759655883 0.009041242007471853 0.004269214381008555 0.001857084014002239 0.0007467752999371153 0.0002771362933477295 9.413426471768948e-05 2.8679078313069623e-05 7.608609298158862e-06 1.6820475029599618e-06 3.018306201057203e-07 4.334751736196105e-08 4.929123444840651e-09 4.302202893388837e-10 2.728175253193412e-11 1.1261518183010021e-12 2.286102622248812e-14 3.791265071638048e-20 0.9999998459967561 0.9999970403647986 0.9999898973066078 0.999982445106964 0.999966962055053 0.9998242667229146 0.998462374276054 0.9908082933221904 0.9639096972290713 0.8985528297213485 0.7799177673347925 0.610755794627914 0.41902388797699114 0.2555651171409722 0.1535967821853402 0.105648567520931 0.08657062139354264 0.07648494643256636 0.06599875242665577 0.052905505447288094 0.03828443356598285 0.025668753156659303 0.01570331526788923 0.008699490894375616 0.004380933551573562 0.0020292829059080516 0.0008734692782292995 0.0003515981951865533 0.00013245338893117192 4.637338105242489e-05 1.4848719298714954e-05 4.23467354664438e-06 1.040061189815135e-06 2.123946196924481e-07 3.509252975385588e-08 4.569064661731584e-09 4.531903478628914e-10 3.236821387385815e-11 1.4931264858646376e-12 3.3657691643465224e-14 5.583883710291391e-20 0.9999833403453121 0.9999768347124262 0.9999573111612291 0.9999033294840354 0.9996880713237912 0.9986180773798926 0.993724165812704 0.976898120290364 0.9346567455145343 0.8539769732517369 0.7305175251312613 0.5729413584714949 0.4029890966103915 0.2519608935324749 0.14493682653864468 0.08428458295409189 0.055375546059293124 0.04174912196695075 0.03314419945829248 0.0254285515266859 0.017938992200433396 0.01158696103410572 0.006810421837792098 0.0036353333478233913 0.001778218599911959 0.0008077535571256833 0.0003453232588012389 0.00014030994042798942 5.438132240214414e-05 1.9994209534798728e-05 6.853561411816105e-06 2.1287742553421477e-06 5.77011704957119e-07 1.3140777208900284e-07 2.4276711416306384e-08 3.525414532502644e-09 3.8779012435198237e-10 3.0532778912211986e-11 1.5444869279607923e-12 3.802918230569692e-14 6.377129161849131e-20 0.9995820682190559 0.9994872422850652 0.9991913102455071 0.9983753742874218 0.9960303757686663 0.9892775712712157 0.9717076276350981 0.9336519889422413 0.8665849169280586 0.7684975569174192 0.6447247918983556 0.5050058004945145 0.3617741051068139 0.2328277312790479 0.13462177682280219 0.0730323068346727 0.04050394583003503 0.024863537281725637 0.016804547090054796 0.011596488519724505 0.007605622739884155 0.004605546905152704 0.0025493594810061756 0.001293263848313504 0.0006082739359211504 0.0002695669697745771 0.00011442315744048568 4.7171256102806476e-05 1.9034992441026838e-05 7.4894552210038575e-06 2.8136933136333e-06 9.70007789132008e-07 2.932629236344866e-07 7.409315742845309e-08 1.5081755998686438e-08 2.3936178499902905e-09 2.8578824809345417e-10 2.429202422621951e-11 1.3211496315070606e-12 3.4878856710467635e-14 5.952700996363748e-20 0.9960188053204109 0.9951176276259159 0.9923241936032441 0.9855614693795407 0.9709350783899312 0.9422820084935207 0.8930243515806777 0.8197045016094897 0.725485080965417 0.619247005915636 0.510096151501357 0.4020907063347532 0.2967120277129917 0.19752669758969146 0.11692486462235291 0.06223584892283993 0.031437670864612285 0.016270384268960977 0.009058331397692718 0.005301709914382648 0.003057457756522165 0.001660669543932012 0.0008364935053428452 0.00039272485112150303 0.00017426602424968295 7.43841376278354e-05 3.111196450385529e-05 1.2989545685898854e-05 5.499023933128824e-06 2.3663260312257006e-06 1.0078519063910518e-06 4.011009174152431e-07 1.3790582509909083e-07 3.887554490723818e-08 8.627324930809875e-09 1.469982275789787e-09 1.867501522647047e-10 1.680517890210997e-11 9.646153453496897e-13 2.6828256367985225e-14 4.698236098978204e-20 0.9815460371734712 0.9765057821832752 0.9593166314205065 0.9232971243373055 0.863788924159905 0.7854748803644506 0.6912616758504962 0.5886795188156401 0.4880375961893002 0.3984794238906137 0.32592973598369884 0.2671467823932637 0.21075945797812834 0.1508104605435025 0.0928592513103799 0.04946435229398626 0.023775000444061518 0.010959370040443481 0.005134403558645024 0.0024855608385248628 0.0011988764124220772 0.0005524443876304868 0.00024046971710018386 0.0001001633769938102 4.070780226733972e-05 1.6353919332106353e-05 6.609138982562304e-06 2.7509210600253703e-06 1.2109186240836e-06 5.822617452149816e-07 2.988269025327238e-07 1.4711393780059237e-07 6.060044857124066e-08 1.924422966226577e-08 4.588852018898205e-09 8.238701299636957e-10 1.0937881477492211e-10 1.0244225500979291e-11 6.109372972809635e-13 1.7634813230250488e-14 3.2022192128691585e-20 0.9489465315820537 0.9199416494678823 0.7973351818125659 0.6494358903892349 0.5338228415525579 0.42863187487279863 0.3357703414956648 0.2578760655985438 0.1966878377833586 0.1528115697015703 0.12355540461889575 0.11836487826851923 0.11290838681486737 0.10022986227057472 0.06601896806561729 0.03559791957273932 0.01662646021651663 0.007079582837410125 0.0028923589838883044 0.0011654533250778471 0.0004484155904958219 0.00015885966899824771 5.4596470427410294e-05 1.9325975463383918e-05 6.9537661816480804e-06 2.5455621656098194e-06 9.595090051474047e-07 3.8156049673065627e-07 1.6787801464844783e-07 8.483630951232379e-08 6.291971993087428e-08 4.458166316522864e-08 2.584600786651896e-08 8.980417366842881e-09 2.2546442085071337e-09 4.19883470263332e-10 5.741938920424634e-11 5.530121863787047e-12 3.3884808540279985e-13 1.0043262263488193e-14 1.914719051455954e-20 0.895084604340084 0.7651692037538427 0.00010883918135498647 4.898034531998114e-05 3.5057715818420516e-05 2.4145189367836784e-05 1.6600592560839044e-05 1.1357888189785247e-05 7.87566219256012e-06 5.798000881374558e-06 4.38319685315952e-06 6.537688826160632e-06 0.08860845553508775 0.07059775472317613 0.04501288371052776 0.023760406613591745 0.010678860277101628 0.004248421805546368 0.0015483344970061777 0.0005273688374671318 0.00015582884779359534 1.774624798385354e-09 4.55035074440407e-10 1.775904606179123e-10 6.806627685703739e-11 2.602664865836215e-11 1.020745774560798e-11 4.232689000371687e-12 1.991653253568682e-12 1.0387199900268565e-12 1.244277821850878e-12 2.4353776350129687e-08 1.2134948681912888e-08 4.13548402707188e-09 1.043267668931251e-09 1.9612964453626584e-10 2.7248100796021593e-11 2.6720390450191835e-12 1.6693280300599268e-13 5.044074319166149e-15 1.0218334698973126e-20 0.8233630992482974 0.6925834903122599 8.91165990429259e-06 2.3367274151736742e-09 1.4655079074308604e-09 9.329242881139112e-10 5.865112118070755e-10 3.688798326366484e-10 2.3781922986602083e-10 1.6442090772196936e-10 1.2421801215345896e-10 2.665725711878882e-07 0.05951596338512097 0.04640980980532219 0.028498710434336983 0.014493439697121155 0.006255040723275295 0.002340020265428622 0.0007738257533488224 0.00022721498798649253 5.354292515125092e-05 4.1853552638142637e-10 6.240313880514546e-15 1.4662027627785495e-15 6.058623887161438e-16 2.440692373366008e-16 9.973714336186312e-17 4.308227948443536e-17 2.1040877828916024e-17 1.1926299895769662e-17 1.6093649507117412e-14 1.0610139617214307e-08 5.277663104146309e-09 1.7646221284601684e-09 4.4187460794301053e-10 8.364768723412049e-11 1.175611666362005e-11 1.1708211282513082e-12 7.437215653251053e-14 2.2836131835475003e-15 4.961528246729058e-21 0.733784965201269 0.6154765458702396 6.985219756542631e-06 6.850549239865494e-11 4.5451148063977515e-14 2.712007277239258e-14 1.6032430795828462e-14 9.422209615278562e-15 5.673703107915579e-15 3.682145980194455e-15 5.290653243001032e-13 1.4552038582226252e-07 0.03551661568450528 0.027028879585415017 0.016229517907603637 0.00801396686460497 0.0033333413106151322 0.0011843813874447377 0.0003619520542381712 9.420500710340608e-05 1.890480173565041e-05 1.60896656419423e-10 1.315971552081915e-15 2.1321994525922975e-20 5.0147451707526224e-21 2.1225950501045898e-21 8.993343766766268e-22 3.99270980096129e-22 1.9968506281480006e-22 1.0521629377353568e-20 6.047254225280865e-15 4.1231619569496814e-09 2.038560442467123e-09 6.847747283507511e-10 1.721456805808748e-10 3.287845103878608e-11 4.686725741901005e-12 4.745629890477466e-13 3.066895643468656e-14 9.564795391850745e-16 2.2375034102605295e-21 0.6296729289134894 0.5282536605750711 8.228870948323156e-06 9.517060688670313e-11 9.975562133923414e-16 6.425037388606104e-19 3.5599099439631123e-19 1.9704026929538454e-19 1.1090494452312865e-19 8.124909104659931e-19 2.4377112077399506e-13 7.198387958213668e-08 0.01917248805962685 0.014252592166848599 0.008361165818031409 0.004031318584626728 0.0016293751256059798 0.0005566538005034522 0.00016036425272058166 3.817929600059817e-05 6.7875966343026825e-06 6.084810733473046e-11 5.36509065199809e-16 4.400647346883526e-21 7.370905273297255e-26 1.7372351687285755e-26 7.551486913479242e-27 3.398810603237346e-27 7.559705407772852e-27 3.5704898776184185e-21 2.1161237116761345e-15 1.4908823444537028e-09 7.328890725397099e-10 2.4716186579481e-10 6.272099914478298e-11 1.2149776982670374e-11 1.7634884709838028e-12 1.821957468159408e-13 1.2011887989176862e-14 3.811673562246848e-16 9.567790302908014e-22 0.5186283477636825 0.43543520845341915 7.191072096996241e-06 8.998719944765506e-11 9.706235465508313e-16 9.693467210235281e-21 6.76962617851497e-24 3.4886846549016696e-24 2.6363736202348376e-24 2.999908515780298e-19 1.0348858723654057e-13 3.256319016357632e-08 0.009432884368538081 0.006855426333742916 0.003940964137925446 0.0018656099105454382 0.0007399052576926042 0.000246624608187054 6.838332269843465e-05 1.5301062479998058e-05 2.4777901595488373e-06 2.2976856570107527e-11 2.134360784273224e-16 1.8394374663775132e-21 1.4924433734067967e-26 2.519505871818001e-31 5.991333880643844e-32 2.9881341042321737e-32 1.8673458298509904e-27 1.1582632293859907e-21 6.998429989257006e-16 5.092747148776468e-10 2.490453978204836e-10 8.457087670580381e-11 2.177176614583352e-11 4.3039341002152796e-12 6.400372112016476e-13 6.785935984652271e-14 4.586530182898286e-15 1.4867724567115508e-16 3.9573532625577634e-22 0.40932491848946845 0.34401197032451863 5.697391896347195e-06 7.276640980650506e-11 7.896687318983411e-16 7.695734080662887e-21 7.012812211140688e-26 5.523256844336939e-29 2.8611357174653646e-25 1.115392697420861e-19 4.051374033362357e-14 1.3538551469267356e-08 0.00424767119336454 0.0030240964125854506 0.001711811966563627 0.00080236677132685 0.00031617541326971237 0.00010462010225249866 2.8554810941791242e-05 6.161252790676789e-06 9.29356822699193e-07 8.900405410364088e-12 8.614601793321927e-17 7.69785468572314e-22 6.407828900172885e-27 5.041675740756065e-32 8.41053796009738e-37 8.773406724995895e-34 5.663280050106584e-28 3.5738419348783627e-22 2.2000035426075984e-16 1.6526610822738956e-10 8.059672203363504e-11 2.7720003814289814e-11 7.301111875567405e-12 1.4866143250771416e-12 2.28592631506052e-13 2.508639167221899e-14 1.7519453477523221e-15 5.841265400892283e-17 1.6148756441041617e-22 0.3093901021140875 0.2603181514312081 4.226399222638336e-06 5.42332591889992e-11 5.824854034723733e-16 5.487085179356409e-21 6.614308709931077e-26 2.9019684246426867e-27 9.460375324989277e-26 3.8352533262233834e-20 1.4629747745138442e-14 5.174110503104104e-09 0.0017507769052415106 0.0012248036982116634 0.0006876202078985869 0.00032272227206960806 0.0001283605687707512 4.306451642372672e-05 1.1882874917403933e-05 2.547876008536368e-06 3.661404100421314e-07 3.643195160728035e-12 3.6732187222577706e-17 3.3735355343581085e-22 2.846933084500689e-27 2.535854620935377e-32 8.939301495873962e-34 5.035564515660216e-34 1.6309139333178116e-28 1.0464958357601234e-22 6.559065605126937e-17 5.083615780879856e-11 2.4844577949219128e-11 8.748200311199824e-12 2.3890081316972705e-12 5.079916995573177e-13 8.183217102572977e-14 9.409586301929197e-15 6.868213445319238e-16 2.3810934551063484e-17 6.637879640038023e-23 0.22394729789262965 0.1887505434040109 3.082155635334513e-06 3.937184786482634e-11 4.1731566425603178e-16 4.502363156902686e-20 7.590844523977554e-21 1.2022903563881501e-21 1.6369189183930167e-22 1.2154001580915966e-20 4.849210586758243e-15 1.809045704353782e-09 0.0006575626565084252 0.0004538566912309874 0.00025500011507225307 0.00012148297038668085 4.9688619299219175e-05 1.7333465333831372e-05 5.003006399068399e-06 1.1098518260335037e-06 1.5819463774532187e-07 1.6897274129862477e-12 1.7681479609919468e-17 1.6628446138210264e-22 7.265778825542198e-27 1.8779578441076986e-27 5.726124666340913e-28 1.6581519560980908e-28 8.916003228984874e-29 2.8748265443739493e-23 1.833522421508893e-17 1.4655357016712993e-11 7.243355619580799e-12 2.6587838114742e-12 7.681077810338935e-13 1.7385319066133083e-13 2.985672270063978e-14 3.656561276780316e-15 2.834556625134891e-16 1.0385577137664576e-17 2.813959336110808e-23 0.15509753576257754 0.13129969088898857 2.048256981386568e-06 2.8012832413875004e-11 6.354693702741691e-14 1.4593865139562125e-14 2.835164490900675e-15 4.723659303795545e-16 6.738333655124287e-17 7.969125798979235e-18 1.459637320694199e-15 5.723511652318522e-10 0.00022269566472422143 0.0001523645024691418 8.658919728672294e-05 4.250647416039425e-05 1.824476430034472e-05 6.7988433423969585e-06 2.1376948297642093e-06 5.249917976835861e-07 7.797862015727214e-08 8.676783078827663e-13 9.870998819774751e-18 1.0377385981789072e-20 3.545309632918883e-21 1.155983122052486e-21 3.585736103530558e-22 1.0557364935995974e-22 2.9166530973208444e-23 1.4555164951314608e-23 4.673175100858226e-18 3.8513658406883665e-12 1.960748075413192e-12 7.742013289594656e-13 2.437396724603206e-13 6.017715267366112e-14 1.1259881931408487e-14 1.4996119704707565e-15 1.2611014035379974e-16 4.996412664690738e-18 1.2645880033033512e-23 0.10120022147720188 0.08799497102789922 2.479491817767845e-06 6.345908133082595e-08 1.9360364123673447e-08 4.783574402865606e-09 9.89812432544955e-10 1.74704339362902e-10 2.627411853130923e-11 3.2609796984910472e-12 2.997822741437513e-13 1.6128412356481331e-10 6.696209573033078e-05 4.557322387978699e-05 2.6380965233271035e-05 1.3609343191093943e-05 6.249027299377573e-06 2.5485150041739272e-06 9.043981168544874e-07 2.6516729340830144e-07 5.4267856095996216e-08 1.025887610398263e-12 1.571384962855627e-14 5.931756790169089e-15 2.0855991100564288e-15 6.931992626426914e-16 2.1904729380974702e-16 6.565952157978084e-17 1.8457407541023954e-17 4.73182514737142e-18 2.0300661219991356e-18 8.547825509380064e-13 4.711360678191122e-13 2.1421555937330604e-13 7.636599438057666e-14 2.1174486197196685e-14 4.4275780263129994e-15 6.573656085111892e-16 6.157990607182787e-17 2.718656835089711e-18 6.2127775645506934e-24 0.059102216404412204 0.05769722692518902 0.03625164168607943 0.01599848124383284 0.0053406471186694575 0.0014327783361734298 0.0003193472955193255 6.026869105041486e-05 9.629720183116389e-06 1.2630115035900007e-06 1.2201715970627e-07 4.77579333189646e-09 1.695833232382208e-05 1.1228272662032113e-05 7.0080708473781965e-06 3.884691752649637e-06 1.942415081445621e-06 8.783798349277123e-07 3.5953750171443803e-07 1.2880223285534031e-07 3.837787640128473e-08 1.9813521012677996e-08 8.580164380311225e-09 3.313156264701078e-09 1.1902825802800398e-09 4.0396797120743436e-10 1.3024891193782231e-10 3.98077781582575e-11 1.1402447081012671e-11 2.97717002065787e-12 6.563897768133487e-13 1.5671506807069978e-13 1.0225456246179432e-13 5.595399241916937e-14 2.35258686312812e-14 7.553461510357054e-15 1.814250821095074e-15 3.087461501758644e-16 3.321398710927869e-17 1.6926702468023218e-18 3.431975234892989e-24 0.02961345766531439 0.028052376717464432 0.018411136744898006 0.007973520415178093 0.0025610450687246667 0.0006612325366935639 0.0001423262547758362 2.6143246408109774e-05 4.121264360697176e-06 5.476188101256691e-07 5.7475334591066516e-08 3.530818299665599e-09 1.9201573239055203e-06 2.1880878199104264e-06 1.5537605916697226e-06 9.569905140267826e-07 5.280037745018261e-07 2.664057148490878e-07 1.2389319222151488e-07 5.364112768693408e-08 2.1887788642096137e-08 1.0377954197392628e-08 4.304685393754251e-09 1.6379475389468356e-09 5.826977149189733e-10 1.9643559169522022e-10 6.314341344835791e-11 1.9352719153670088e-11 5.615629844584461e-12 1.5145767863145142e-12 3.6337946984296823e-13 8.118415677015191e-14 2.886454900411351e-14 1.5185322818098182e-14 7.270019818353565e-15 2.731621787676017e-15 7.700430276115558e-16 1.5421285106763163e-16 1.9646451127080557e-17 1.1983973061696953e-18 2.164981021536918e-24 0.01155373420105918 0.010614390253709992 0.0063701684939766875 0.0026838735150595456 0.0008318657469795453 0.00020675182346701593 4.327737141522599e-05 7.85710218748133e-06 1.2578612391496042e-06 1.7814973099250005e-07 2.1989581879806114e-08 2.3396847916660906e-09 2.16762018471053e-07 3.212993098487732e-07 2.80601918773254e-07 1.9647574558060227e-07 1.2089746827764658e-07 6.769312987208089e-08 3.51935491741133e-08 1.7170936528738518e-08 7.858269503796416e-09 3.549238171771414e-09 1.4789834761592172e-09 5.570009837585494e-10 1.9770919751765108e-10 6.688191818647161e-11 2.175485539844771e-11 6.832329745719819e-12 2.071521279548115e-12 6.030402379561507e-13 1.6672997485908223