# vtk DataFile Version 3.0
vtk output
ASCII
DATASET RECTILINEAR_GRID
DIMENSIONS 41 41 1
X_COORDINATES 41 double
0 1 2 3 4 5 6 7 8 9 10 11 12 13 14 15 16 17 18 19 20 21 22 23 24 25 26 27 28 29 30 31 32 33 34 35 36 37 38 39 40 
Y_COORDINATES 41 double
0 1 2 3 4 5 6 7 8 9 10 11 12 13 14 15 16 17 18 19 20 21 22 23 24 25 26 27 28 29 30 31 32 33 34 35 36 37 38 39 40 
Z_COORDINATES 1 double
0
POINT_DATA 1681
FIELD FieldData 1
Concentracao 1 1681 double
1.0 1.0 0.9999999999996652 0.9999999999986988 0.9999999999970557 0.9999999999947629 0.9999999999918289 0.999999999988256 0.9999999999840442 0.9999999999791961 0.9999999999736796 0.9999999999676639 0.9999999999612859 0.9999999999558351 0.9999999999501039 0.9999999999440006 0.9999999999376185 0.9999999999309988 0.9999999999241825 0.9999999999170271 0.9999999999026048 0.9999995220457948 0.9999990284680188 0.9999985381078497 0.9999980478945562 0.9999975577103457 0.9999970675468288 0.9999965773136777 0.9999960872255196 0.9999955943837423 0.9999951133811136 0.9999946025339623 0.9999941678724865 0.9999937116919244 0.9999932205589249 0.9999907973483884 0.9998334816009906 0.9953608311631312 0.9407442176546866 0.6390907268634849 4.7792936965078935e-05 1.0 0.9999999999995979 0.9999994268894025 0.9999986985747009 0.9999979207274471 0.9999971279125258 0.9999963314184882 0.9999955341874499 0.9999947369874093 0.9999939490497867 0.9999931570526691 0.9999928949452798 0.9999935749446894 0.9999955173196289 0.9999965358751501 0.9999972543010851 0.9999977341988818 0.9999980601991861 0.9999982594245133 0.9999982679594287 0.999996820908384 0.8704208764600389 0.8537849470996894 0.8502547294877045 0.8497514407817626 0.8496534079398287 0.8496508453461189 0.8496573392080895 0.8499011942670092 0.8499974390019658 0.860771850641665 0.874445746880106 0.9136277346661764 0.9349196820785042 0.950699540851914 0.9622533375887904 0.9713729784704371 0.9744946912838306 0.9248403517246092 0.6262154254968176 4.692057797021594e-05 0.999999999999665 0.9999994268770603 0.007341911327614064 0.003985558171047544 0.003591592677430271 0.003386093052218643 0.0031992044365911324 0.0030455202289790006 0.0029234199170347754 0.0029273121191062805 0.0028053648791006506 0.005559791453213183 0.9999685291845963 0.9999793191429767 0.9999866221312859 0.9999903291190568 0.9999926214956477 0.9999940670116264 0.9999949153459341 0.9999953490537228 0.9999870675222886 0.0022825355664384574 0.0002139186466924309 0.00021269719985453453 0.0003299112149015335 0.0003928273582052965 0.0004390315337894564 0.00047579150684245335 0.0005249782810253566 0.0005459989535733763 0.0012007220767276802 0.8744191231469519 0.8906310204617431 0.9107072726713437 0.9266733434610678 0.9407132950676429 0.9530224730812088 0.9591868856592015 0.9091161995628119 0.6076791549314563 4.5755357814562374e-05 0.9999999999986986 0.999998698564559 0.003982452739500643 1.4272182393678003e-05 6.3859936247464275e-06 5.6981823836442195e-06 5.1059158735908e-06 4.612842302563339e-06 4.2431532692541955e-06 4.098356350433814e-06 4.159421029325489e-06 0.0002844224774672664 0.9999391025908182 0.999968388265513 0.9999780490251418 0.9999838831135832 0.9999875465013428 0.9999900022695491 0.9999916281019783 0.9999925052858267 0.9999809099632604 0.0015230661866036928 1.0670808414234574e-06 3.401891640208941e-08 6.685208296905474e-08 9.317951198188049e-08 1.1448430314483849e-07 1.336375528509792e-07 1.566160161339098e-07 2.0331614203993332e-07 0.00018504304520339723 0.8743838187881773 0.886493303676367 0.900187305032455 0.9143461666357408 0.9278904930040628 0.9409058043728417 0.947422127382647 0.8924469735451142 0.5837133350875328 4.428824856276661e-05 0.9999999999970556 0.9999979207150594 0.003588704265990679 6.375757233916022e-06 1.4874778116113311e-08 6.361848214676029e-09 5.3896979679849855e-09 4.593941160974902e-09 3.980095178404178e-09 3.640160651850342e-09 4.130818519132167e-08 0.0002750411587408042 0.9999009751454607 0.9999540359874122 0.9999698424164255 0.9999778120683106 0.9999828413362802 0.9999862799976165 0.999988714924199 0.9999904031487348 0.9999770980836703 0.001497216174397151 1.00493857021861e-06 4.1831902093229587e-10 1.0337974235934363e-11 1.5582443770519743e-11 2.039354605931942e-11 2.4862498993017407e-11 3.14774076029793e-11 1.820382387137647e-08 0.00017749334189871082 0.8743363632139426 0.8841717805476133 0.8953512439189436 0.9073315794819726 0.9198868436477072 0.9325671072814194 0.9375720912474405 0.8737423298000309 0.554879574206302 4.251700670807802e-05 0.9999999999947629 0.9999971278981894 0.0033833512171411563 5.6889556802302916e-06 6.346440154192329e-09 1.0585099114485668e-11 4.2390923471889705e-12 3.372304305670426e-12 2.7045789579924763e-12 5.634673773413744e-12 3.7147789638733806e-08 0.0002723085430067373 0.9998593772661434 0.9999386525194509 0.999961200898647 0.9999719489289405 0.9999784571111093 0.999982928910451 0.9999862199623978 0.9999887332666547 0.9999737481141441 0.0014341071619731998 9.609864414214214e-07 3.9981455519040065e-10 1.1913368259875007e-13 2.135571663611685e-15 2.8243235746808528e-15 3.530420476138963e-15 1.085872528243e-12 1.645275613062838e-08 0.00016860238826519144 0.8742813778651599 0.8827782979227079 0.8923710662434362 0.9029568765990404 0.9145100861859524 0.9264041772161569 0.9282366161250091 0.852113066757599 0.5222151267266443 4.045577853508083e-05 0.9999999999918286 0.999996331402427 0.0031966046185453074 5.097618860547135e-06 5.376567257277747e-09 4.22535668676517e-12 5.29864896549927e-15 1.9551453466832078e-15 1.6449580889402486e-15 3.261179766028238e-12 3.625762588115869e-08 0.00026903193474002077 0.9998155952760214 0.999922247363835 0.9999522586992533 0.999966104347878 0.9999742819953757 0.999979861153884 0.9999840308303535 0.9999873365522394 0.9999707210627006 0.0013935617639529605 9.18549540395886e-07 3.8071240062221887e-10 1.1205582800731735e-13 2.5498643549852777e-17 3.343715540196388e-19 4.345045605720205e-17 9.085668290862434e-13 1.4573591215654129e-08 0.00015822185389306542 0.8742185774466492 0.8817845091338183 0.8902946643873982 0.899845401775538 0.9105324785550479 0.9212327582398249 0.9181811573985772 0.8271421429811973 0.48725246578608955 3.814311269740608e-05 0.9999999999882556 0.9999955341697213 0.0030430376318398714 4.605323525000066e-06 4.582714974451043e-09 3.3613235091985e-12 1.9472055301533585e-15 1.8944273583014344e-18 2.0858382990826266e-16 3.1247869326662323e-12 3.5241800499199266e-08 0.0002652233168285545 0.9997714906655829 0.9999048245780866 0.9999427317054014 0.9999600394011902 0.9999700984258505 0.9999768988333473 0.9999819900172092 0.9999860738752507 0.9999680081270628 0.0013626634133238613 8.840322251676842e-07 3.615834527695561e-10 1.049073321274304e-13 2.320931418604409e-17 8.304175383856837e-21 3.307569509033556e-17 7.382685756546778e-13 1.2594014325545319e-08 0.00014640430801990932 0.8741304653675784 0.8809414717766997 0.8885804801067527 0.8972756165596982 0.9070942969300217 0.9160357366732389 0.9064044692974094 0.7991310616441367 0.45191926283717065 3.564630555421195e-05 0.9999999999840441 0.9999947369680259 0.002921029443760442 4.236215793775295e-06 3.9703392533617595e-09 2.6957451770665647e-12 1.638114224632691e-15 2.0759353703801504e-16 3.8888173236665594e-16 2.9755994071011125e-12 3.4101668599840765e-08 0.00026087347087672293 0.9997283869711407 0.9998854804845876 0.9999318838057585 0.9999532076276317 0.9999655115660511 0.9999737474123568 0.9999798773047948 0.9999847917826604 0.9999657052127383 0.0013466052989427166 8.646548751580565e-07 3.4742714238145855e-10 9.838688976674936e-14 9.833092783422454e-17 7.089037877443086e-17 8.867645112056695e-17 5.758124473218405e-13 1.0545372306069713e-08 0.00013293984384780798 0.8738347346087312 0.8798948952811088 0.8867000135613657 0.8945572977047485 0.9033438854608706 0.9098210902474555 0.8923318965592801 0.7692070738704028 0.41827217056055943 3.305765613301159e-05 0.9999999999791956 0.9999939490285685 0.002924902330689915 4.091610107247015e-06 3.6311737187326286e-09 5.6154318881042715e-12 3.249630849359108e-12 3.113566936582373e-12 2.9647447050688037e-12 5.612016029998297e-12 3.2826624482629506e-08 0.00025590084112827086 0.9996873886458603 0.9998622441048847 0.9999181299058059 0.9999445328501075 0.9999597997588845 0.9999699125971735 0.9999773458274094 0.9999832743561865 0.9999640382610224 0.0013711749027109682 8.738583656483612e-07 3.4638675628967187e-10 1.657665453280667e-12 1.472527341338749e-12 1.3783406108524587e-12 1.281953844406212e-12 1.6057787497786778e-12 8.414012180366288e-09 0.00011705624159408183 0.8719686432558574 0.8771750205574913 0.8832324345193366 0.8903484620749041 0.8980308361335186 0.9015937220814004 0.8759666647906793 0.7391316983359751 0.38815580543863415 3.048273497007003e-05 0.9999999999736793 0.9999931570298063 0.0028030444592796826 4.152518034092928e-06 4.121154718463796e-08 3.70604736749165e-08 3.617135867601427e-08 3.515674679502153e-08 3.401800328642913e-08 3.2744558881209844e-08 6.264064426980054e-08 0.0002500982471892873 0.9996491157190591 0.9998316460779724 0.9998982965780033 0.9999318771572924 0.9999515897747707 0.9999644908617406 0.9999737760439523 0.9999810580910218 0.9999630246343124 0.001362779065925256 9.268991509772008e-07 2.323795627318866e-08 2.2073303195030593e-08 2.1191641254272005e-08 2.0261106789250476e-08 1.9285145797252044e-08 1.8259728335730484e-08 2.3248453844414507e-08 9.62364806775548e-05 0.8585511173850611 0.8642919186360344 0.8718000103389935 0.8804307061531224 0.8885369045216363 0.8901048926873729 0.857710181230686 0.7107941517021245 0.36289332159534626 2.802393264750426e-05 0.9999999999676638 0.9999928949188821 0.005554352139753752 0.0002840863592218881 0.00027471896380715276 0.00027198623804122784 0.0002687094885745957 0.00026490073729718103 0.00026055075857886435 0.0002555779947210991 0.0002497753388132439 0.0004848496867423446 0.9996158857255633 0.999784016305865 0.9998652964419377 0.9999106150012612 0.9999379853563634 0.9999556667870365 0.9999678822407483 0.9999772394913389 0.999963949997712 0.0022804658068066447 0.000217879463737759 0.0002131484521260755 0.00020923219240762318 0.00020493610371761093 0.0002002946868213217 0.00019530159686715552 0.0001899044609024187 0.00018399441431851614 0.00023178540458391488 0.687430035962425 0.7290925757521173 0.792622294056882 0.8362462893362865 0.8627983502287749 0.8711581364641268 0.8372520218818544 0.6854628050095978 0.3430790442235901 2.576335408571351e-05 0.9999999999612856 0.9999935749347243 0.9999685294559927 0.9999391024394263 0.9999009749798129 0.9998593770854981 0.9998155950800852 0.9997714904543235 0.9997283867449238 0.9996873884053546 0.9996491154651233 0.9996158854731059 0.9996158793345655 0.9997253881696979 0.9998131204583116 0.9998740495870921 0.9999138226308653 0.9999397607774942 0.9999573389803801 0.999969250328823 0.9999653449194844 0.9999437677258466 0.9999262165582571 0.9999074145188299 0.9998896138768689 0.9998725137283091 0.9998562401312105 0.9998407916528506 0.9998263384325399 0.9998127062827971 0.999804912013331 0.9998241402826807 0.8920832922877809 0.8319487151308311 0.8210307242451503 0.8355264966138101 0.8461937317653544 0.8145407685666604 0.6634571006772629 0.3285524511844259 2.375222719924917e-05 0.9999999999558349 0.9999955173197085 0.9999793191334319 0.9999683881732728 0.9999540358706981 0.9999386523881034 0.9999222472217284 0.9999048244267281 0.9998854803243586 0.9998622439350696 0.999831645896394 0.9997840161099844 0.9997253880443516 0.9997253846190004 0.9997739125922369 0.999831001145192 0.9998787312951384 0.9999138844244954 0.9999383867512173 0.9999557228340468 0.9999601203871495 0.9999531087675417 0.9999484423321684 0.9999434148221624 0.9999386428040185 0.9999338423061674 0.9999287273622781 0.9999228193375027 0.9999155437159752 0.9999059512732559 0.999895460588362 0.9998812469698853 0.9698916468634269 0.9016394824942089 0.84751381704159 0.8272831301549775 0.824356159880511 0.7917388454357686 0.6446260104363053 0.31857481049115677 2.2009054427390884e-05 0.9999999999501036 0.9999965358705367 0.9999866221083801 0.9999780489597471 0.9999698423269413 0.9999612007944475 0.9999522585845628 0.9999427315823407 0.9999318836751417 0.999918129767318 0.9998982964298824 0.999865296280823 0.9998131203120145 0.9997739125123553 0.9997739098793224 0.9998040220201442 0.9998442603982866 0.9998816561657486 0.9999114622661398 0.9999332086678762 0.9999452536107433 0.9999479805953446 0.9999481079581513 0.999947184287287 0.99994586882505 0.9999443228532656 0.9999424730052264 0.999940085742167 0.9999367298601279 0.9999316890291663 0.999924090668237 0.9999118728015574 0.9887450250039048 0.946960593830218 0.8867163938623762 0.8393060626950304 0.8134051097421405 0.7725823464478005 0.628985659106125 0.31214439738889327 2.0525922534784595e-05 0.9999999999440001 0.9999972542961496 0.999990329093129 0.9999838830619389 0.9999778119969912 0.9999719488438233 0.9999661042526274 0.9999600392979094 0.9999532075173041 0.9999445327327215 0.99993187703169 0.999910614864827 0.9998740494478559 0.999831001032465 0.9998040219612171 0.9998040196925693 0.9998246411628565 0.9998537942822728 0.9998823868408734 0.9999060906615366 0.999922432194923 0.9999316974628955 0.9999365106325454 0.9999390434705676 0.9999403433812508 0.9999409832551615 0.9999411881661883 0.9999409765705543 0.9999401621769771 0.9999382623170276 0.9999343516121466 0.9999263703572734 0.9953722111279677 0.9713566611051654 0.9211541017832806 0.8622817428452502 0.8147339688292063 0.760029969316044 0.6168217389430805 0.308272297426874 1.927848871583358e-05 0.9999999999376177 0.9999977341940615 0.9999926214727821 0.9999875464588945 0.9999828412778646 0.9999784570405108 0.9999742819154516 0.9999700983384389 0.9999655114720987 0.9999597996585051 0.9999515896671705 0.9999379852396116 0.999913822506265 0.9998787311763497 0.9998442603077305 0.9998246411167123 0.9998246390122462 0.9998391733413049 0.9998600522547791 0.9998809264000936 0.9998980172712794 0.9999101114345792 0.9999181526202957 0.9999234104654299 0.999926962349103 0.9999295100086196 0.9999314918291228 0.999933136169167 0.9999344730588534 0.9999352514416902 0.9999347450469597 0.9999311811314298 0.9979457836215255 0.9843113335776642 0.9465639047924967 0.8876448840779584 0.8252437465905952 0.7549219408186691 0.608329544071736 0.3061142208603204 1.8234982310607427e-05 0.9999999999309979 0.9999980601946552 0.999994066991754 0.9999900022339036 0.999986279948835 0.9999829288513535 0.9999798610866925 0.999976898759559 0.9999737473327662 0.9999699125118849 0.9999644907701024 0.9999556666874938 0.9999397606690417 0.9999138843123299 0.9998816560641387 0.999853794208057 0.9998391733043873 0.9998391711921726 0.9998492833037388 0.999863670725096 0.9998778212121939 0.9998894463553365 0.9998981800760912 0.9999045466055594 0.9999092638798753 0.9999129707129512 0.9999161601248846 0.9999191914606259 0.9999222780487516 0.999925397486198 0.9999280420344586 0.9999287325616363 0.99902520255714 0.9912002372400596 0.9639768384662661 0.9106111847505494 0.8406322777902563 0.7561953581827415 0.6032841438277664 0.3049654360690484 1.7362378237988138e-05 0.9999999999241815 0.9999982594201615 0.9999949153278728 0.9999916280709783 0.9999887148826274 0.9999862199126063 0.9999840307740849 0.9999819899556058 0.9999798772384454 0.9999773457563397 0.9999737759675307 0.9999678821574317 0.9999573388883961 0.9999383866511541 0.9999114621657773 0.9998823867538817 0.9998600521936766 0.9998492832741122 0.9998492809155678 0.999856023762912 0.999865201273469 0.9998739534519014 0.9998811110915693 0.9998866801499509 0.9998910509461689 0.9998946949867077 0.9998980449328685 0.999901496230926 0.9999054266019967 0.9999101091744389 0.9999154667677599 0.9999201202716441 0.9994906101989017 0.9949163185457467 0.9754270714698037 0.9293377410859853 0.8572559335088045 0.7617748793129748 0.6009634065614686 0.3042064745300723 1.662955137047867e-05 0.999999999917026 0.9999982679547039 0.9999953490364839 0.9999925052569394 0.9999904031121781 0.9999887332244018 0.9999873365055137 0.9999860738248046 0.9999847917288534 0.9999832742989825 0.9999810580298222 0.9999772394246943 0.999969250253261 0.9999557227485352 0.9999332085752143 0.9999060905717624 0.9998809263258187 0.999863670675002 0.9998560237392854 0.9998560205086748 0.9998600881957196 0.9998650412825763 0.9998694347316006 0.9998728943012986 0.9998757040536811 0.9998781453302104 0.9998805030972263 0.9998831086717526 0.9998863681614337 0.9998910258668567 0.9998976364473254 0.9999065840471351 0.9997051403697206 0.9968893070704423 0.9827549472460112 0.9435564552595624 0.8726831328552258 0.7694058642198954 0.6003066189778422 0.30327481093673897 1.600862614105536e-05 0.9999999999026036 0.999996820892801 0.9999870674454928 0.999980909855695 0.9999770979364627 0.999973747917398 0.9999707208022054 0.9999680077861315 0.9999657047759526 0.9999640377231537 0.9999630240069182 0.9999639493616186 0.9999653443356484 0.9999601199992478 0.9999452533570293 0.9999224320166555 0.9998980171417117 0.999877821121267 0.9998652012157062 0.9998600881650755 0.9998600797924352 0.9998559435498645 0.9998526124549085 0.9998496120497721 0.9998467391474761 0.9998440021484978 0.9998415381857284 0.9998396531951683 0.9998390981770826 0.9998405226655809 0.999850564265786 0.9998648778725091 0.999769560199507 0.9979524194759379 0.9872440700261137 0.9538077946082001 0.8856052561694489 0.7772048599894762 0.6001791338431343 0.30169614051386767 1.5475494777420498e-05 0.9999995220424456 0.8704199294487297 0.002277121590512346 0.0015195846341194339 0.0014938058384439854 0.0014308326901754187 0.0013903639891627063 0.001359518297306003 0.0013434818891451604 0.0013679895024579617 0.001359623959091089 0.0022753332973708797 0.9999437669007659 0.9999531081416064 0.999947980145441 0.9999316971327895 0.9999101111919874 0.9998894461787375 0.9998739533259163 0.9998650411921473 0.999855943473731 0.0007721368664359242 0.000571370730625838 0.0006420211867058924 0.0006948216750874335 0.0007354122152710509 0.0007737520931478957 0.0008148144317450658 0.0008798231118161172 0.000917975432331601 0.0016097631491680529 0.99984299054693 0.9997961197072657 0.9984438318171782 0.9899883055367975 0.9608201659375769 0.895637477416824 0.783899679356739 0.5996464766262459 0.299148221070173 1.5010022020300206e-05 0.9999990284623032 0.8537842476433883 0.0002133471485272625 1.0622375031150935e-06 1.0004193113821985e-06 9.56659633117672e-07 9.143974806460402e-07 8.800166131942982e-07 8.607111753894164e-07 8.698693080332717e-07 9.226887116058208e-07 0.00021739074006346153 0.9999262156414204 0.9999484415442416 0.999948107295478 0.9999365100979252 0.999918152197159 0.9998981797469713 0.9998811108364991 0.9998694345197506 0.9998526121443555 0.0005711768320419379 3.0473869844281713e-07 2.002461885441426e-07 2.367087720580184e-07 2.668855796809364e-07 2.953590484479757e-07 3.267857791767294e-07 3.69414684448434e-07 4.330967522378224e-07 0.00014691644918837766 0.9998245543033153 0.9997967630897829 0.9987151128519878 0.9915549061953662 0.96550067654181 0.9029337718872915 0.788906660528563 0.5981567321890995 0.2955359044193251 1.4596233375001067e-05 0.9999985380998345 0.8502540295844496 0.00021212333705043375 3.383550931880496e-08 4.1552652391599314e-10 3.97151122585832e-10 3.7816863401381926e-10 3.591577159274848e-10 3.450885934331727e-10 3.440549726299351e-10 2.3133268557266522e-08 0.00021266533450052012 0.9999074133140721 0.9999434137487727 0.9999471833320545 0.9999390426387981 0.9999234097601644 0.9999045460201129 0.99988667966505 0.9998728938600305 0.9998496112682127 0.0006417511682775874 2.0006961870145324e-07 8.304161556410741e-11 5.34155428940281e-11 6.38610627299597e-11 7.386746411391146e-11 8.462109005810977e-11 9.923932901648173e-11 1.0704251850350396e-08 0.0001433147134508324 0.999803522530894 0.999792458192839 0.998833780022447 0.9924900330076059 0.9685362617609119 0.9080446355553187 0.7922158966055851 0.5956316197336048 0.29102458447495944 1.4222439755686142e-05 0.9999980478842556 0.849750740458997 0.00032900943449550284 6.648803934435916e-08 1.0253777244548351e-11 1.1808677613411315e-13 1.1107160526862496e-13 1.0398288821332642e-13 9.75176136809214e-14 1.6462976478425538e-12 2.1972810420428565e-08 0.00020874902709818726 0.9998896121914066 0.9999386412623339 0.9999458673996784 0.9999403420806017 0.9999269611879418 0.9999092628662949 0.9998910500651143 0.9998757032048567 0.9998467374760746 0.0006944834512266468 2.3646756818146457e-07 5.3330601782306817e-11 1.8189800037924416e-14 1.1424912699124009e-14 1.3648696108828955e-14 1.597141357112945e-14 5.21123743157148e-13 1.0137571163699346e-08 0.00014008674162745204 0.999781073754186 0.9997847829630216 0.9988964385752955 0.9930533796363242 0.9705713955661484 0.9116351671811894 0.7942849704552951 0.5924501709196838 0.28604245705006165 1.3881319789924022e-05 0.9999975576977602 0.8496527075585887 0.0003917389557802964 9.26653262000074e-08 1.5453988466506666e-11 2.1121963134557426e-15 2.5221817735902687e-17 2.29573352552072e-17 9.740329789467013e-17 1.4624122580758783e-12 2.1093222300287434e-08 0.00020445288800800772 0.9998725112223712 0.9999338399667058 0.9999443206379678 0.9999409811724574 0.9999295080866315 0.9999129689791199 0.9998946934343351 0.9998781437867407 0.9998439989361663 0.0007350099707055835 2.665803794072066e-07 6.374721111515255e-11 1.1396821176320837e-14 3.290005210740894e-18 2.006411209381555e-18 1.9847477930988112e-17 4.690753199956301e-13 9.666756700774234e-09 0.00013664376040119314 0.9997556687430259 0.9997733024309662 0.9989309244838881 0.9934424262634434 0.9720763459248595 0.9144419182222169 0.7958854934712419 0.589393640182262 0.2812403973752708 1.3569793066113247e-05 0.9999970675319588 0.849650144967877 0.00043779834947286356 1.1384402195406348e-07 2.022320573688932e-11 2.7930036817855436e-15 3.2975449403318735e-19 8.19500015842509e-21 7.023646782351562e-17 1.3686724171222451e-12 2.0164927985979073e-08 0.00019981142891191403 0.9998562361777006 0.9999287236148697 0.9999424694065365 0.9999411847284982 0.9999314886012612 0.9999161571659941 0.9998980422543164 0.9998805004209141 0.9998415325520552 0.0007732820256056825 2.949842730223853e-07 7.372149735003313e-11 1.3611530034868593e-14 1.999377984474831e-18 1.4403743776476121e-21 1.5907481699724718e-17 4.3565139211436486e-13 9.182739195296113e-09 0.0001330067202433287 0.9997254207556976 0.9997562353300365 0.998952935790615 0.9937727822967881 0.9734332303348032 0.9171857463658997 0.7980035804248792 0.5875590125500627 0.2774494803682476 1.3288949901406176e-05 0.9999965772965237 0.8496566388720824 0.00047443637461552736 1.3287992069814423e-07 2.465204699567477e-11 3.490629944231555e-15 4.283126715008793e-17 3.2577681741872976e-17 8.76808682206061e-17 1.2727537896882328e-12 1.9191377477376328e-08 0.00019481829946218162 0.9998407850220279 0.9999228129856141 0.9999400796080349 0.9999409706857952 0.9999331306257104 0.9999191863770134 0.9999014916642072 0.9998831042318007 0.9998396442219094 0.0008142644318086164 3.2632550929362365e-07 8.443566408726244e-11 1.5923181030775908e-14 1.9733387165477653e-17 1.5809844894268463e-17 2.8624321041919233e-17 4.022062099428165e-13 8.68524672943735e-09 0.00012915693313246597 0.999686794353074 0.9997299609727374 0.9989716251832303 0.9941303459958508 0.974952013234056 0.9205608403335394 0.8017462160549197 0.5882755239703513 0.27564263439336834 1.3043530468112836e-05 0.9999960872060814 0.8499004954272771 0.0005234613267057131 1.5571546538674842e-07 3.120559538699633e-11 1.074626728219987e-12 8.986557002724265e-13 7.297122349144994e-13 5.686565323667039e-13 1.5913725211314907e-12 1.8168561912530165e-08 0.0001894211248671589 0.9998263265151002 0.9999155322270249 0.9999367187807655 0.999940151612167 0.9999344631972934 0.9999222691266373 0.9999054187895896 0.9998863610555018 0.9998390856537316 0.0008791542297458763 3.6882930250005147e-07 9.899395691225836e-11 5.188468417869224e-13 4.669618834967316e-13 4.3364089583037824e-13 4.00301701230905e-13 7.349872529686436e-13 8.16823068447655e-09 0.00012502115740123116 0.9996328191326178 0.9996872588294387 0.9989924738848142 0.9945835271251801 0.9768868802319126 0.925188355006385 0.8082322684485616 0.5930046767108964 0.27690875170540097 1.2841413732840545e-05 0.9999955943620064 0.8499967403775958 0.000544398115834869 2.0211831626161229e-07 1.8081876234469317e-08 1.633725111173165e-08 1.4465241894158732e-08 1.2493811810076544e-08 1.0454452940275925e-08 8.334036036574486e-09 2.3094537970151433e-08 0.00018351099636376136 0.9998126828840671 0.999905928638747 0.9999316673815314 0.9999382419691158 0.9999352328179367 0.9999253810360265 0.9999100953088245 0.9998910145614758 0.9998405073262269 0.0009171761034931278 4.3230089122675625e-07 1.0673533100816006e-08 1.0107834598124719e-08 9.637725421846472e-09 9.15445285796788e-09 8.657748931814584e-09 8.14158168960681e-09 1.520027239141563e-08 0.00012042281361677654 0.9995465566676132 0.9996118914522356 0.9990149188986156 0.9951780444526858 0.9794047438647752 0.9315200689387326 0.8184279845000602 0.6032041661101076 0.28243569983783234 1.2692564750056698e-05 0.9999951133571897 0.8607712184537979 0.0011970632900578629 0.00018443834257483058 0.00017689065814935231 0.0001679996890950364 0.00015761913284151086 0.00014580158100119822 0.00013233725893152 0.00011645493746451268 9.564466907289639e-05 0.00023083032236881945 0.9998048600359023 0.9998954103889944 0.9999240428278527 0.9999343076605395 0.9999347059173376 0.999928008530122 0.9999154394617246 0.9998976164133243 0.999850557599348 0.001607955388982066 0.0001467101414842644 0.00014310988513747863 0.0001398819064570502 0.00013643891742387554 0.00013280187169900987 0.00012895207980885738 0.00012481629986949792 0.0001202179768235496 0.00022933514151200648 0.9993702784174566 0.9994510488412288 0.9990119191202055 0.995903316430289 0.9825081318422146 0.9396863914984793 0.8329077000720728 0.620127763344856 0.29348669922533166 1.260769966031369e-05 0.9999946025077249 0.8744451841851996 0.8744185381472144 0.8743832336692081 0.8743357777861844 0.8742807892516449 0.8742179191896168 0.8741288043317991 0.8738240432058297 0.8718994938873619 0.8581674349537219 0.6854804224800656 0.9998239776803997 0.9998810921255458 0.9999117353315603 0.9999262506216108 0.9999310795172428 0.9999286487717568 0.9999200544378856 0.9999065348044056 0.9998648665851588 0.9998429758916791 0.999824536088964 0.9998034988313893 0.9997810416573589 0.9997556235226228 0.999725354211453 0.9996866911787273 0.99963264784531 0.9995462412228434 0.9993695537699667 0.9990331730268935 0.9990958787108648 0.9988779177734138 0.9966239194660756 0.9859610025475736 0.9493557567527183 0.8516097694831694 0.6445743047323528 0.31136310405906065 1.2596429892186442e-05 0.9999941678444162 0.9136273678293556 0.8906305238806121 0.8864927778357647 0.8841712418604165 0.8827777479833437 0.8817838663795445 0.8809396466815983 0.8798832384036596 0.8771049112712921 0.8639402675833201 0.7274656051147904 0.891349548265528 0.9696717417857017 0.9886602703727418 0.9953365899456202 0.9979297965514551 0.9990176670313151 0.9994868532607071 0.9997032220178079 0.9997684232861258 0.9997953948654339 0.9997961773095473 0.9997919003618777 0.9997842169196163 0.9997727037023068 0.9997555803703454 0.9997292203221073 0.999686389424029 0.9996108190504298 0.999449619199092 0.9990951981599789 0.9988490757132641 0.9986457560279077 0.9971686937102974 0.9893211517133078 0.9597375301998802 0.8737030826810814 0.6766577669828648 0.3373475676619439 1.2665191382254865e-05 0.9999937116615605 0.9349193930179028 0.9107068664698541 0.9001868446220883 0.8953507577042205 0.8923705561946851 0.8902939903399053 0.8885781263342549 0.8866861134208003 0.8831613528498822 0.8714981066624208 0.7915165950010273 0.8308655501966654 0.9009444994448 0.9465646595743328 0.9711347319850687 0.9841862781217221 0.9911285018237355 0.9948741460301904 0.996863273250108 0.9979354358380051 0.9984314303805717 0.9987052254491904 0.9988251088673761 0.9988883309561121 0.9989230815838969 0.9989452163431495 0.9989639880859811 0.9989849642223783 0.9990076833483685 0.999005229927656 0.9988727660111509 0.9986427765912688 0.9984042326798009 0.9974704766893183 0.9921616274349015 0.9698016172807702 0.8976878517653525 0.7156715475294341 0.37263463808168035 1.2815082522425716e-05 0.9999932200256393 0.95069931796222 0.9266730070010076 0.9143457686649952 0.907331138464625 0.9029563506897408 0.8998443330889222 0.8972710671141774 0.8945361127336925 0.8902661523631321 0.8801599530187159 0.8354609061851089 0.8199150916791378 0.8464403338161065 0.8858605416595956 0.920529977156936 0.9461265120366135 0.9636743856636061 0.9752167145459683 0.9826053877518522 0.9871330202963499 0.9899014817565134 0.9914824856006936 0.9924261471239372 0.9929945205131786 0.9933867462954856 0.9937195409468741 0.9940795928434699 0.9945359676582264 0.9951349312271147 0.9958662037437824 0.9965944210626809 0.9971478381530627 0.9974581689096543 0.9972075266227548 0.9940975261650965 0.9785631591729634 0.9216953267437435 0.7600834924031967 0.4183202313735693 1.3040031316223112e-05 0.9999906760295391 0.9622530237553394 0.9407128228774077 0.927889815037679 0.9198857264228932 0.9145077045793548 0.9105259949961371 0.9070749385767567 0.9032889746855143 0.897891311143358 0.8882165990277775 0.8621154766459053 0.8344479816730817 0.825985884605277 0.8380040986218419 0.8611117113298502 0.8866590897866975 0.9098086836452723 0.9286928535242382 0.9430357652583914 0.9533794513743719 0.9604568861401744 0.9651817734904512 0.9682466320808533 0.970301235146196 0.9718201558235428 0.973189026772141 0.9747207018687744 0.9766717310628236 0.9792106972085876 0.982340595034466 0.9858243289573189 0.9892172621910194 0.9920893058536847 0.9940549179421129 0.9937715299062473 0.9847877172169134 0.9436605297334145 0.807723165143342 0.47509058236779983 1.3324974376102369e-05 0.9998263706532284 0.9713649292220655 0.9530123403702364 0.9408914974985656 0.9325445537026252 0.9263651975462719 0.9211615547670302 0.9159044973885815 0.9095871235295506 0.9012002719670846 0.8894820001287613 0.8702150260