# vtk DataFile Version 3.0
vtk output
ASCII
DATASET RECTILINEAR_GRID
DIMENSIONS 41 41 1
X_COORDINATES 41 double
0 1 2 3 4 5 6 7 8 9 10 11 12 13 14 15 16 17 18 19 20 21 22 23 24 25 26 27 28 29 30 31 32 33 34 35 36 37 38 39 40 
Y_COORDINATES 41 double
0 1 2 3 4 5 6 7 8 9 10 11 12 13 14 15 16 17 18 19 20 21 22 23 24 25 26 27 28 29 30 31 32 33 34 35 36 37 38 39 40 
Z_COORDINATES 1 double
0
POINT_DATA 1681
FIELD FieldData 1
Concentracao 1 1681 double
1.0 1.0 0.9999999999996643 0.9999999999986964 0.9999999999970507 0.9999999999947544 0.9999999999918162 0.9999999999882386 0.9999999999840216 0.9999999999791674 0.9999999999736446 0.9999999999676212 0.9999999999612351 0.9999999999557775 0.999999999950039 0.9999999999439277 0.9999999999375374 0.9999999999309092 0.9999999999240842 0.99999999991692 0.9999999999017452 0.9999995216247954 0.9999990276637802 0.9999985369312676 0.9999980463453726 0.999997555786066 0.9999970652420773 0.9999965746159769 0.9999960841022617 0.9999955907381659 0.9999951088804576 0.9999945948633964 0.9999941259328115 0.9999919825010689 0.9998982471050001 0.9977713481420691 0.976217840296284 0.8684518245278701 0.586103326710639 0.20820956777801639 6.269144481621857e-06 1.0 0.999999999999597 0.999999425479368 0.999998696225415 0.9999979174467578 0.9999971237288954 0.9999963263744062 0.9999955283210973 0.9999947303296487 0.9999939416087693 0.999993148853766 0.9999928859040028 0.9999935667686841 0.9999955116153126 0.9999965314669517 0.9999972508070851 0.9999977313155496 0.9999980577306838 0.9999982572095152 0.9999982657543951 0.9999966907795088 0.8703071045138462 0.8536717166554156 0.8501415485924639 0.8496381463143395 0.8495399673230948 0.8495372139720956 0.8495434523018983 0.8497871341646264 0.8498829599998587 0.8606650131895759 0.8743487779865338 0.9135601248520145 0.9348648339920426 0.9505401605863476 0.9596744713153612 0.9455686060370231 0.8410999726226559 0.5630514629381788 0.19727439153744328 5.941965060793676e-06 0.9999999999996643 0.9999994254669947 0.004899656104204284 0.002653942307091399 0.0023891043354878597 0.0022492270774697133 0.0021220023060086936 0.0020171320069847106 0.0019334385932496298 0.001933265874942014 0.0018498427845994349 0.0036635281076638927 0.9999684732494217 0.999979283290283 0.9999865996165943 0.9999903132359647 0.9999926096367593 0.9999940576484414 0.9999949074290763 0.9999953418676684 0.9999860303884975 0.0014076482381183478 0.000131408561903842 0.000129798766235679 0.00019962836770818593 0.0002355855765121331 0.0002608736824655726 0.0002800192577153657 0.00030591122553269286 0.0003148718978544431 0.0006828341586067109 0.874321244226727 0.8905441985598231 0.9106282598657541 0.9264260046649345 0.9372146239066728 0.9217726356079327 0.8102445014761651 0.5296839749081432 0.17979869047086058 5.4542846180892505e-06 0.9999999999986962 0.9999986962152646 0.0026508288400855034 6.3292507360842e-06 2.8233659678592034e-06 2.5132664886259854e-06 2.2455806182730647e-06 2.0228855057780976e-06 1.8553883727175462e-06 1.7869515385073433e-06 1.8079892495317708e-06 0.00018471653761160004 0.9999390437210564 0.9999683461558995 0.9999780172968628 0.9999838589126985 0.9999875274742409 0.9999899868817812 0.9999916151861747 0.999992493698692 0.9999787336623742 0.0009235605327083782 3.9517418105893124e-07 1.2658432638552076e-08 2.458024221919057e-08 3.3673137399265544e-08 4.063956489099583e-08 4.6569136476677316e-08 5.354092590979445e-08 6.749059560426068e-08 0.0001009630340694103 0.8742823507014665 0.8863984897936346 0.9000829938004629 0.9138750755915404 0.9223039876497999 0.8991150903314745 0.7721786367639298 0.485999432424347 0.15748403392015728 4.8435998985370425e-06 0.9999999999970506 0.9999979174343526 0.0023862124305477407 2.816550430537492e-06 4.371946644962529e-09 1.8624448133104283e-09 1.5716394735422228e-09 1.3338463120681718e-09 1.150634060717348e-09 1.0478135985231085e-09 1.7096797287756255e-08 0.0001794078830544979 0.9999009126284458 0.9999539895316198 0.9999698056538824 0.9999777824350977 0.999982817182024 0.9999862600524279 0.9999886981788592 0.9999903886524856 0.9999731735578565 0.000896938486840896 3.63507095506964e-07 9.200962723678201e-11 2.307657502548361e-12 3.4077076322533752e-12 4.3455596212386e-12 5.157591165460599e-12 6.293232598476701e-12 5.166035421859416e-09 9.363940860278999e-05 0.874210999412074 0.8840398008683367 0.8951337366519556 0.9060907473488693 0.909396722810056 0.8719819920920401 0.7234575057119267 0.4332528921895919 0.13260084611452563 4.158017456378172e-06 0.9999999999947544 0.9999971237145387 0.0022464820277576327 2.5071364616177734e-06 1.8556483659232278e-09 2.0565835490169024e-12 8.193916643865866e-13 6.48314548694953e-13 5.169672394616104e-13 1.351224781311814e-12 1.5629905162885906e-08 0.00017664808282290837 0.999859310768246 0.9999386028045034 0.9999611605459472 0.9999719155109158 0.9999784292271556 0.9999829055636776 0.9999862003697079 0.9999887166437061 0.9999673357383724 0.0008492460766528229 3.401192445809059e-07 8.521626295126686e-11 1.5399908012089606e-14 2.8228791350744877e-16 3.6284560021736764e-16 4.35490675299417e-16 1.507865991852601e-13 4.296795168316544e-09 8.474995852797326e-05 0.8738912811410514 0.8822756425813498 0.8913260150524186 0.8987353633737201 0.8926339122976845 0.8343150227874103 0.6621393164995266 0.37437577771743374 0.10762219172448668 3.451716012717281e-06 0.9999999999918162 0.9999963263583236 0.0021193996021626094 2.240076472822122e-06 1.5658670304078537e-09 8.15388525695158e-13 6.78645885528491e-16 2.488356746588703e-16 2.180968103714723e-16 8.728074141054568e-13 1.5053665009980516e-08 0.00017333666140025003 0.9998155245861297 0.9999221948500765 0.9999522155528211 0.9999660680405675 0.9999742512630632 0.9999798351857391 0.9999840090418268 0.9999873182226381 0.9999608669677593 0.0008160386073467706 3.183103501977287e-07 7.874427526991461e-11 1.3932482694402262e-14 1.9189443949738903e-18 2.5785741706504262e-20 2.7807529880812243e-18 1.0973929926847104e-13 3.41307824270456e-09 7.439509095902519e-05 0.8717684520743021 0.8786453017924822 0.8848025559353643 0.8856615233162513 0.8644689975081187 0.7809288377021398 0.5892520613362736 0.3137852871476218 0.08470024583739169 2.776593298507431e-06 0.9999999999882385 0.9999955283033455 0.0020146467540520137 2.0179050026913618e-06 1.3289254622372327e-09 6.451292292432031e-13 2.473109112019779e-16 1.6002489054441384e-19 3.488637902012592e-17 8.171593158194838e-13 1.4400969991990364e-08 0.00016949523364483173 0.999771415750669 0.9999047694723338 0.9999426861544841 0.9999600006932375 0.9999700653491428 0.999976870706876 0.9999819664139276 0.9999860539817611 0.9999536181086998 0.0007894137739637498 3.0021174392290966e-07 7.266431132404595e-11 1.2574279195028455e-14 1.6702982899623651e-18 3.5191189323514136e-22 1.736428824760057e-18 7.505650022735494e-14 2.564598106284696e-09 6.274125153724031e-05 0.8617565862879427 0.86608264707382 0.8669841129467843 0.8572138796670524 0.8170002113209919 0.7100955143030465 0.5093000574660846 0.25626146238834785 0.0652472059002977 2.173479477857195e-06 0.9999999999840217 0.9999947303102403 0.0019310456386800877 1.8507996911378044e-06 1.1463701188481969e-09 5.14415863514441e-13 2.1671476577724944e-16 3.463116278082322e-17 6.277381199663216e-17 7.57076821758035e-13 1.3675879037106203e-08 0.00016511281088444856 0.9997283079248429 0.9998854227504057 0.9999318359434428 0.999953166696053 0.9999654763543412 0.9999737173234846 0.99997985203776 0.9999847702175675 0.9999457901666945 0.0007724109103410646 2.8819754348168464e-07 6.798619972181712e-11 1.1397992844349253e-14 8.356445773020323e-18 5.931552214136932e-18 6.0212127833167356e-18 4.740253902977493e-14 1.7944962796343034e-09 4.996554573119039e-05 0.8288716610032281 0.8292851133146838 0.8234557337838453 0.8022683119265577 0.7458157372641648 0.6251893830185014 0.4288727155880112 0.20558543281088917 0.04979329850510303 1.6662885659026125e-06 0.9999999999791673 0.9999939415875239 0.0019308534186979335 1.782495573564181e-06 1.043897066089486e-09 1.344154789696003e-12 8.680523528012145e-13 8.126132757043235e-13 7.527622670940391e-13 1.3808455992582856e-12 1.287365983081799e-08 0.00016010737453499375 0.9996873056674733 0.9998621834052396 0.9999180795047122 0.9999444895739589 0.999959762349273 0.999969880493733 0.9999773188217901 0.99998325079556 0.9999383169477893 0.0007799839817515943 2.8672052233707555e-07 6.624824821921324e-11 2.720557795129371e-13 2.350934664920118e-13 2.088578241834221e-13 1.8312880375844078e-13 1.8483633929511938e-13 1.1323532115427693e-09 3.63494669921978e-05 0.7472515706225604 0.7451697630175991 0.7378500798918776 0.7134734524415397 0.6527014902419169 0.5333429879386287 0.35413584421114297 0.16369006338280162 0.038146329342382046 1.2614512441410865e-06 0.9999999999736444 0.9999931488308755 0.0018475203395878898 1.803437507322494e-06 1.7035791757185255e-08 1.5573459666168653e-08 1.4998284800340502e-08 1.4346824404677097e-08 1.3623143199937538e-08 1.282253925573927e-08 2.3884425457961228e-08 0.00015425208552892117 0.9996490290465345 0.9998315816292528 0.9998982429402843 0.9999318310337263 0.9999515497946557 0.9999644564215557 0.9999737469686637 0.999981032060051 0.9999322795656975 0.0007703778722370902 3.0033098017610037e-07 7.105829442417416e-09 6.596204350919762e-09 6.126753760338645e-09 5.641446793169635e-09 5.144476323141854e-09 4.636564453095732e-09 4.707161643650303e-09 2.225792108936008e-05 0.5806812427143956 0.5877977874444945 0.5974615108360437 0.5904821100987111 0.5441341016763027 0.4419123809662213 0.2888213413777734 0.13065339747656793 0.02969550373135455 9.518249545605299e-07 0.9999999999676211 0.9999928858775498 0.0036580742934643417 0.00018438464785803767 0.00017908518270468872 0.0001763253074703904 0.0001730137944832402 0.00016917228073358252 0.00016478977296316652 0.00015978425147115675 0.00015392892148896029 0.0002931544654962341 0.9996157840953855 0.999783938440905 0.9998652328192242 0.999910561527489 0.9999379398710975 0.9999556280995793 0.9999678497397172 0.9999772101690864 0.9999344346275063 0.0012895493681166098 0.00012112312510570336 0.00011724688677345341 0.00011332342614443652 0.00010902005238044807 0.00010437305645717628 9.937563168595836e-05 9.397597313030528e-05 8.806360595589953e-05 8.861813387534555e-05 0.24832977316074448 0.3007996331283959 0.38956412790864503 0.4349426223789834 0.4261624672759301 0.3552243516925149 0.2336467052906807 0.10525400254812478 0.023689631023239944 7.22400712721555e-07 0.9999999999612348 0.9999935667587019 0.9999684735215225 0.9999390435691979 0.9999009124625277 0.9998593105873073 0.9998155243898783 0.9997714155390752 0.999728307698276 0.9996873054265998 0.9996490287911098 0.9996157834695871 0.9996154549112021 0.9997249732247309 0.9998127914596193 0.9998738110428075 0.9999136562527721 0.9999396465628729 0.999957261856228 0.999969193246733 0.9999396517549088 0.999913532976202 0.9998867263457171 0.9998518621556366 0.9998070522990455 0.9997439322145856 0.9996471828963901 0.9994855232794606 0.9991911800307951 0.9986019582905692 0.9973005931122613 0.9939650665174331 0.7141769815007847 0.5162934743373934 0.4108687398457723 0.3545530350128492 0.28791796728200353 0.18991042607292188 0.0860680463205017 0.01944452131674287 5.558634243999917e-07 0.999999999955777 0.9999955116153906 0.999979283280717 0.9999683460634149 0.9999539894146532 0.9999386026728946 0.9999221947076997 0.9999047693206964 0.9998854225898895 0.9998621832351232 0.9998315814463553 0.999783937940958 0.9997249736798531 0.9997245430602297 0.9997729016884033 0.9998300453840598 0.9998779405047233 0.9999132834254009 0.9999379516093472 0.9999554233418285 0.9999457255517865 0.999927535666812 0.9999128982937813 0.9998916926465415 0.9998603592881559 0.9998105179886867 0.9997267468358562 0.9995780020932676 0.9992974956578399 0.9987258133240661 0.9974560462599649 0.9938354177014183 0.9104218023941794 0.7091614020159033 0.5080952503011311 0.3628489570929242 0.25838041893475666 0.16167743463990786 0.07254752019514642 0.016491349944048547 4.3675257697731383e-07 0.9999999999500385 0.99999653146233 0.9999865995936339 0.9999780172313093 0.9999698055641971 0.9999611604415259 0.9999522154378953 0.999942686031178 0.999931835812572 0.9999180793659573 0.9998982427910379 0.9998652324499849 0.9998127917709012 0.9997729028068558 0.9997721443898993 0.9998017887982806 0.9998419299968133 0.9998794989807499 0.9999096075360545 0.9999316573582538 0.9999358918782794 0.9999287221057984 0.9999168000799656 0.9998989165056977 0.9998703179475703 0.9998230900102122 0.9997420696882301 0.999597294792629 0.999324858981573 0.9987751918045649 0.997547176632066 0.9943070978315164 0.9583875748366282 0.8319473693013251 0.630717569806976 0.42881955412183437 0.2706587970244326 0.15265386478827253 0.06510437210434795 0.014637051848565296 3.5370037701919857e-07 0.9999999999439273 0.9999972508021413 0.9999903132099756 0.999983858860932 0.9999777823636158 0.9999719154256109 0.999966067945113 0.9999600005897411 0.9999531665854996 0.9999444894563335 0.9999318309071972 0.9999105612554562 0.9998738111801174 0.9998300469979258 0.9998017908257004 0.9998003745748927 0.9998199042263035 0.9998484760475838 0.99987691818258 0.9999006727888046 0.9999125644871285 0.9999134953176263 0.9999059768917482 0.9998897655435925 0.9998610295288476 0.9998116736050199 0.9997264997890313 0.9995763287437467 0.9993013250982232 0.9987651766892681 0.9976144598056985 0.9947396573316376 0.9760951400562073 0.8980320369184793 0.7325936799133376 0.5160109633006147 0.31411818068428526 0.16272121449160615 0.06426722161768904 0.01389375215289323 2.995865636687676e-07 0.9999999999375367 0.9999977313107212 0.9999926096138412 0.9999875274316935 0.9999828171234746 0.9999784291563991 0.9999742511829648 0.999970065261544 0.9999654762601902 0.9999597622486806 0.9999515496863149 0.9999379396701142 0.9999136562605833 0.9998779420612962 0.999841933492901 0.9998199073865912 0.9998171450020014 0.9998291179740317 0.9998478611434385 0.9998668380069158 0.9998792851756533 0.9998823433425267 0.9998752760815198 0.9998559805357118 0.9998194028329672 0.9997558920873515 0.999648782799524 0.9994692853515879 0.9991637039630968 0.9986163986578015 0.9975313239158263 0.9950070334191492 0.98364288419892 0.9339407484894422 0.806041977124232 0.6005060282673792 0.3735527707584381 0.18785698268551568 0.06983803114855151 0.014319853762748403 2.702215926961944e-07 0.9999999999309085 0.9999980577261453 0.9999940576285239 0.9999899868460529 0.9999862600035347 0.9999829055044466 0.9999798351183979 0.9999768706329253 0.999973717243721 0.9999698804082572 0.999964456329349 0.9999556279508871 0.9999396465102628 0.9999132847086966 0.9998795030006419 0.9998484816561047 0.9998291217454022 0.9998232867648787 0.9998268688473567 0.9998338296500598 0.9998371719400656 0.9998313083581758 0.9998114141738449 0.9997711243892204 0.9997004213491212 0.9995842462545539 0.9994017363024892 0.9991255333948015 0.9987164578200532 0.9980959995389848 0.9970453294433461 0.9948408993161714 0.987097214142707 0.9538256154644166 0.8562014752737697 0.6719243967028737 0.436309871868942 0.22210732926931306 0.08063707250267269 0.015869573931606016 2.626259936419773e-07 0.9999999999240834 0.9999982572051561 0.9999949074109742 0.9999916151551032 0.9999886981371914 0.9999862003198029 0.9999840089854298 0.999981966352179 0.9999798519712354 0.9999773187504695 0.9999737468916022 0.9999678496294897 0.999957261804699 0.9999379526076718 0.9999096114159446 0.9998769245860731 0.9998478664000442 0.9998268696653428 0.9998128271174641 0.9998004785103435 0.9997813016209867 0.999744752071016 0.9996778553481179 0.9995633594136195 0.9993778485409699 0.9990924065552005 0.9986777980661888 0.9981157789268216 0.9974112120108117 0.9965758892243097 0.9955170073326202 0.9937001069366693 0.9881011968121118 0.9648149535127014 0.889278867602615 0.7276400293361566 0.49409040401364385 0.25947261745805394 0.09474448319884586 0.018320527231501765 2.7371310595172206e-07 0.9999999999169187 0.9999982657496138 0.9999953418499521 0.9999924936684419 0.9999903886125191 0.9999887165935379 0.9999873181579644 0.999986053891901 0.9999847700829122 0.9999832505896543 0.9999810317646423 0.9999772097830165 0.9999691928586533 0.9999554239359063 0.99993166043586 0.999900677649923 0.9998668395470587 0.999833821167957 0.9998004607712586 0.999759159420856 0.9996931129994101 0.9995740364522756 0.9993608884522657 0.9990044683097111 0.998448436604639 0.9976302678142729 0.9965059391912026 0.9950928891391193 0.993516719375771 0.9920756392181118 0.9910078646542729 0.9900177634023236 0.9865606264251501 0.9697151247314103 0.9098883920754564 0.7680833369747174 0.5422729565269736 0.29497168023920023 0.10995479802498913 0.021293139887900304 2.996894278051343e-07 0.9999999999016952 0.9999966827048354 0.999985967145567 0.9999786139056969 0.99997296347607 0.9999669978666261 0.9999603525886527 0.9999528710581594 0.9999447581381729 0.9999369791719308 0.9999306670516975 0.9999327944650621 0.9999381575918677 0.9999448090922626 0.9999353930177974 0.9999122940758954 0.9998791257712646 0.9998370489602791 0.999781168804302 0.9996929653644708 0.9995124679562442 0.9990702081961877 0.998222768991437 0.9968774444162297 0.9948819782247718 0.9920940614481749 0.9884498514520269 0.9840644570659147 0.9794182809109204 0.9752497186422301 0.9746313993916499 0.9757184080132991 0.9788526886696869 0.9686026397898174 0.9201318224026339 0.7947582986002015 0.5787153954689921 0.3250946092972667 0.12423081536000594 0.024339091594430092 3.360987765386433e-07 0.9999995216213311 0.8703061488465605 0.001402227983368619 0.0009200767429871736 0.0008935257856148772 0.0008459694167637486 0.0008128387273482685 0.0007862666183203867 0.0007692854948468659 0.0007767964706923832 0.0007672209164870416 0.001284410799789489 0.9999118780866634 0.9999260877777049 0.9999276811869332 0.9999127720864509 0.9998818304074297 0.999830886347152 0.9997442944905612 0.9995733993438563 0.9990692973795837 0.0003653347084849511 0.00026113114786873977 0.0002834230989459122 0.00029612764028562794 0.00030243959063417747 0.0003070665427265259 0.0003124531115292109 0.0003272917901004566 0.00033348313304269267 0.0005830916886503866 0.9725685887135174 0.9727289246552172 0.9643990907277518 0.9231263846321662 0.8094730832946645 0.6032347317843408 0.3478779083193604 0.1360731700331685 0.027055045527796695 3.7826332596956245e-07 0.9999990276578501 0.8536710058327758 0.00013083871429503107 3.9224987386211987e-07 3.608147035496556e-07 3.375726640271516e-07 3.1589518049094146e-07 2.979021220549455e-07 2.859528059473442e-07 2.844699062746602e-07 2.9797200515522465e-07 0.00012063662427934125 0.9998845668985465 0.9999109476416007 0.9999151299518532 0.999904628595924 0.9998741802684943 0.9998104219402539 0.9996767086083013 0.9993591119919765 0.9982187723956087 0.00026093704055630233 6.734633873417872e-08 4.178033588002286e-08 4.662380020168918e-08 4.963153186848889e-08 5.1913680389033234e-08 5.4448619564146165e-08 5.875014863731675e-08 6.633377903477041e-08 5.0878410542761465e-05 0.9669371732940134 0.9666761479401084 0.9582456358184713 0.9201900484019763 0.8146121354522371 0.6167369280370941 0.3628508273312268 0.14471085920695662 0.0291797839702037 4.2186381016268406e-07 0.999998536922879 0.8501408333258633 0.00012922489108321657 1.2547248308377696e-08 9.101018805181693e-11 8.42850708324867e-11 7.787434924454834e-11 7.185212338245823e-11 6.721838353091713e-11 6.549545951742324e-11 7.049066237495545e-09 0.00011676353980403115 0.9998488293918757 0.9998888720775926 0.9998963537230913 0.9998874954223392 0.9998539567950001 0.999769141076568 0.9995609232631582 0.9990004417931708 0.9968685311144196 0.0002831527982470814 4.169620108191281e-08 8.52951930615385e-12 5.094376742247464e-12 5.655819827818075e-12 6.086548513897419e-12 6.515230303628974e-12 7.197397196862373e-12 1.4393274052895851e-09 4.7950131244931305e-05 0.9588785866360396 0.9583021200498724 0.9494849682559414 0.9126918151748783 0.8118936129615129 0.6210320653911322 0.37067703002686964 0.15011688247793378 0.030637172066333124 4.6343539179321606e-07 0.999998046334423 0.8496374251055264 0.00019872636030203482 2.4360127957658635e-08 2.2769139817950796e-12 1.5180537860401725e-14 1.3732805516969515e-14 1.239228507785865e-14 1.1231575067613284e-14 2.687822102612446e-13 6.542072349536159e-09 0.0001128400681282118 0.9998025571253164 0.9998561089238425 0.9998663183030125 0.9998573016873651 0.9998158733552229 0.9996967585723521 0.999373148051411 0.9984405187426988 0.994865373345872 0.00029578906298925457 4.6512369139733505e-08 5.075497961457573e-12 8.674965919942635e-16 4.998432355640032e-16 5.485415659927784e-16 5.925987071044037e-16 2.8055556707572258e-14 1.2863695053674919e-09 4.488647446063849e-05 0.9481223980700305 0.9473035042581762 0.9377937937768491 0.901011612158639 0.8030973479160187 0.6181617252878785 0.3728426711918793 0.15286138117726802 0.031526951870869534 5.006833761521052e-07 0.9999975557722983 0.8495392384531829 0.00023449693934746168 3.3365023426459614e-08 3.361375166034466e-12 2.772176087759452e-16 1.8853399524653088e-18 1.6408902674006049e-18 8.220628693440781e-18 2.32199136594642e-13 6.074701626138073e-09 0.00010853669400643222 0.9997369606043409 0.9998038557324568 0.999816698276483 0.9998055364967099 0.9997498651339704 0.999577767064136 0.9990839166376111 0.9976160767592831 0.9920662807133962 0.00030203699355830143 4.949477829229098e-08 5.6318133909748916e-12 4.969532247211119e-16 7.29808759110294e-20 4.0524686430601464e-20 4.356746062676235e-19 2.3467461019927648e-14 1.1427623165581553e-09 4.166667846277652e-05 0.9341252859788665 0.9330754889765877 0.9227701797673952 0.8854909014347662 0.7896016104099846 0.6103339861094061 0.37126087498783994 0.1539152413657232 0.032078931036182125 5.32606237454171e-07 0.9999970652248299 0.8495364746284761 0.000259640224115062 4.0259436416162994e-08 4.2852126097768955e-12 3.5619241332916256e-16 2.520018901970485e-20 3.442933700321599e-22 5.8338950923268355e-18 2.061950809347203e-13 5.591640634600272e-09 0.00010388972286810443 0.9996359199479052 0.9997159107081818 0.9997315676474239 0.9997162619199311 0.9996385417405496 0.9993905765712048 0.9986632478205187 0.9964823716458403 0.9884070279875536 0.0003065962639929772 5.175074851582675e-08 6.0573101501495414e-12 5.449691740974653e-16 4.0190153580995494e-20 1.387762382828786e-23 3.2003923078915564e-19 1.981545697318432e-14 1.003231889194716e-09 3.833133520278708e-05 0.9161483851465363 0.9148933686588359 0.9038815955344766 0.8662565130930361 0.7726554292641628 0.5996816847646662 0.3680119319100547 0.15445317209818105 0.032603496646175345 5.594513121755984e-07 0.9999965745933496 0.8495426985685579 0.00027866381373596133 4.6123646902577295e-08 5.0844062874746446e-12 4.273142118987103e-16 2.707434727703917e-18 1.6869520359847793e-18 5.904604111287843e-18 1.8070301809770776e-13 5.097085695254963e-09 9.889236344928975e-05 0.999466569716964 0.9995596887808473 0.9995794866158653 0.9995588961474287 0.9994518011829964 0.9991066437583823 0.9980919615985909 0.9950564517790735 0.9840031616165873 0.00031190328340153676 5.425425019537655e-08 6.479853698366294e-12 5.882536660076543e-16 4.2962192590402163e-19 3.152533253481547e-19 5.091724093385733e-19 1.6468141096579504e-14 8.688038817481585e-10 3.488951539007336e-05 0.893137952420515 0.8917615761738886 0.8804610499382559 0.8433657881453696 0.7533870464131738 0.5882220687723682 0.36515217447380843 0.15572529450704195 0.03345906420991022 5.826107367281278e-07 0.9999960840685439 0.8497863622246722 0.0003043938618009898 5.301665864306784e-08 6.201255828115101e-12 1.478889687701102e-13 1.0745164081677214e-13 7.334370526629508e-14 4.620944487738521e-14 1.8190418294887295e-13 4.591783457795194e-09 9.349284941865704e-05 0.9991578146903736 0.9992651742629459 0.9992934800893499 0.9992707626787362 0.9991334025445033 0.9986846879402034 0.9973736468352455 0.9934640977640598 0.9793376599520144 0.00032662382411055216 5.85093033074258e-08 7.152646588725494e-12 2.7748239090436087e-14 2.3198177553775715e-14 1.9578048721888323e-14 1.6261628700181563e-14 2.6639826628445413e-14 7.391911524072554e-10 3.131472214369008e-05 0.8634320352260705 0.8621877241858328 0.8515773122108142 0.8167774686620061 0.7327818700082639 0.5777286426247349 0.3645714915139883 0.15898509517289222 0.0350467505043209 6.044581957160515e-07 0.9999955906757818 0.8498821610516726 0.00031327082827960787 6.680465319685715e-08 5.10211781937854e-09 4.2391139169791334e-09 3.3625380904522885e-09 2.5220887122764082e-09 1.7607715808416723e-09 1.1079472343373467e-09 4.6504089369629e-09 8.75807908140384e-05 0.9985399648619587 0.9986656283038868 0.9987171133028094 0.9987092835913483 0.9985622512779302 0.9980417991140523 0.9965173678042669 0.9920045342639553 0.9751513165220534 0.00033268599106301013 6.601434436501425e-08 1.4284789719356125e-09 1.2762219566383978e-09 1.133295640253538e-09 9.944752670308084e-10 8.607858274474977e-10 7.319475666499559e-10 1.2182583903033517e-09 2.751623275915657e-05 0.8238918979835491 0.8235530427615793 0.8156684686821081 0.7861035866709528 0.7114150130945488 0.5694761894328274 0.36783203411836485 0.16545638620563619 0.03783173466632361 6.282010177676837e-07 0.9999951087250569 0.8606642587158183 0.0006791725375221354 0.0001003589097475168 9.303645427162911e-05 8.41471948653606e-05 7.379385926109957e-05 6.214736244539607e-05 4.9395542560095623e-05 3.5837874390932986e-05 2.1863401411021275e-05 8.796969543432942e-05 0.997177908416855 0.9973369031189606 0.9974322667870271 0.9975058715582851 0.9974292152669428 0.9969483911980521 0.9954219308456168 0.9909114565297307 0.9745482878234246 0.0005812913348158537 5.0676133820027095e-05 4.7749397068086344e-05 4.4687072712112225e-05 4.146910786189728e-05 3.8136254368748553e-05 3.469781183214139e-05 3.112764507296198e-05 2.7335711528891963e-05 4.620609285742314e-05 0.7660381584772263 0.7693284455343391 0.7694465145134373 0.7497641580900642 0.6887674522158969 0.5637463591962467 0.3758920569566028 0.17628282167373324 0.0423827614848196 6.577074063737171e-07 0.9999945941942424 0.8743480729801358 0.8743204788031391 0.8742813955490137 0.8742085235482243 0.87387264564423 0.8716459133019656 0.8612389584412574 0.8273787329173762 0.7441273812560499 0.575918612846087 0.24456502402742383 0.9937012639322755 0.9935656716916409 0.9940558866849669 0.9945093697963189 0.9947980286563222 0.994651422673919 0.9935284310651682 0.9898630388949528 0.975624322329431 0.9724367888463759 0.9667699942175397 0.9586581489358895 0.9478273756758246 0.9337290932202623 0.9156180411369693 0.8924325452430798 0.8625000421803685 0.8226649142029602 0.7644089651421622 0.6925775362606027 0.6962416993118212 0.7076384132763298 0.7037454908183016 0.662109666610086 0.5590393687515486 0.3886572021297735 0.19239356819151826 0.049417453452017 6.972935597547018e-07 0.99999411961914 0.9135596149718537 0.890543449953083 0.8863974419455579 0.8840363504631755 0.8822491578411529 0.8784848694020979 0.8654551164082974 0.8275907446715983 0.7418173222084312 0.58288095114738 0.2965515128130394 0.7122234256143047 0.9094701684135538 0.9577017783805905 0.9755362770492957 0.9831660931040209 0.9866841653824261 0.9877405744310878 0.9862511001277436 0.9786305354816458 0.9724927071800212 0.9663989288855063 0.9579586242480633 0.9468658524996989 0.9325117619255354 0.9141669528284948 0.8908309048450599 0.8610064125324558 0.8220692434840283 0.7674832496689592 0.6948204972118558 0.6530365181311678 0.6481812436626344 0.6505190980176756 0.6286583570464074 0.5520490279309856 0.40449172385838716 0.21423382108470235 0.05982695146058712 7.513376505061366e-07 0.999991765898766 0.9348640826274704 0.9106269730877392 0.900080344914965 0.8951229488906869 0.8912633824815015 0.8845168760918681 0.8660702991240811 0.8213302271216192 0.7340873182550336 0.592292728628311 0.38453467951790465 0.512763989965878 0.7068297505247126 0.830279298523811 0.8967221546281661 0.9328536881352977 0.9528967897737172 0.964009603145025 0.9690091130731584 0.9679859169881978 0.963805901184354 0.9576250228141385 0.9487884236351604 0.9369761171861022 0.9217907930961416 0.9027021203861441 0.8790468428001904 0.8499004725470197 0.8137121782794096 0.7672109695006555 0.7054355152394861 0.6467998743786904 0.61428797629051 0.604425395370433 0.5916564906884864 0.5402382839490885 0.4204937076438594 0.24144498829283184 0.07465365530321004 8.2362137840653e-07 0.9998900138508341 0.9505297892694922 0.9264104299321273 0.9138443332327996 0.9060104577387245 0.8984899751886822 0.8849671696666719 0.855605858910993 0.7992803753480903 0.7089468320118676 0.5848034656024405 0.4291748434022684 0.40600043914711165 0.5043087953737856 0.627745135169353 0.7301586118374479 0.8039644600632629 0.8543791293732271 0.8876502367630432 0.908408929766799 0.9187589234819313 0.921800735247517 0.9188430090084356 0.9112589547358872 0.8994356153914475 0.8837247872116651 0.8642660768491921 0.8411314453544393 0.8142974494175674 0.783396905084544 0.7468703383711012 0.7008135823988704 0.6480032132196515 0.6029427796537075 0.5761589277069891 0.5596676781953632 0.5249391721143989 0.4340479598675146 0.2728198571136327 0.09506058135024122 9.164108680421065e-07 0.9976370965276166 0.9595228923697151 0.9370158658304739 0.9220007118835427 0.9088648608175501 0.8916320913321466 0.8626299005056948 0.8139474345596486 0.7413703238175225 0.6470263207080997 0.5377216479640275 0.4197504941860346 0.34879521755693316 0.35798532854449294 0.4247472932519994 0.5125181918450185 0.5974101135382796 0.669102229318267 0.7250136797268958 0.7655971031187394 0.7923625112213326 0.8071096695305472 0.8122177818177969 0.809405378653931 0.8004609374754914 0.786777088857494 0.7696205186229443 0.7501390289543125 0.729338310852681 0.7078134084571354 0.685062664405224 0.6583960473107313 0.6251725661285135 0.5888401613747641 0.5580525964243225 0.5362023218620398 0.5095824448978142 0.44409268665853696 0.3067592888571211 0.12217341381959779 1.0291631379552323e-06 0.9752452522219934 0.9445266566946964 0.9205496428289639 0.8975531308511375 0.8698592030329574 0.8313606308917216 0.7769113116400996 0.7