# vtk DataFile Version 3.0
vtk output
ASCII
DATASET RECTILINEAR_GRID
DIMENSIONS 41 41 1
X_COORDINATES 41 double
0 1 2 3 4 5 6 7 8 9 10 11 12 13 14 15 16 17 18 19 20 21 22 23 24 25 26 27 28 29 30 31 32 33 34 35 36 37 38 39 40 
Y_COORDINATES 41 double
0 1 2 3 4 5 6 7 8 9 10 11 12 13 14 15 16 17 18 19 20 21 22 23 24 25 26 27 28 29 30 31 32 33 34 35 36 37 38 39 40 
Z_COORDINATES 1 double
0
POINT_DATA 1681
FIELD FieldData 1
Concentracao 1 1681 double
0.0 2.0839666185575085e-58 3.5772019498925166e-57 6.958177632349572e-55 4.684698945837885e-49 1.968553447917426e-43 4.438360345571689e-38 4.469513343855381e-33 9.764391671388308e-29 1.9495395254156767e-25 6.724560945836042e-23 6.9745065194668e-21 3.1200790609338877e-19 7.52913025311155e-18 1.1381930954577682e-16 1.1931176817375265e-15 9.319234723646584e-15 5.716750744203398e-14 2.864941367724643e-13 1.2088897437349904e-12 4.397473878430365e-12 1.405060079719229e-11 4.003161378437852e-11 1.0295292328932661e-10 2.414169598110317e-10 5.20476170106233e-10 1.0387310244677811e-09 1.929801846941452e-09 3.3524456048035625e-09 5.463882751852443e-09 8.372918858255423e-09 1.2073593956123926e-08 1.636790318360843e-08 2.079486569630503e-08 2.4596047400277955e-08 2.6761413045649845e-08 2.621080570109679e-08 2.2176662114397615e-08 1.4844021333334774e-08 6.226147719132256e-09 9.761599924865722e-10 5.3285184261282106e-58 2.604960357163504e-52 4.471506014567596e-51 8.697728998614596e-49 5.855878366996303e-43 2.460693776264705e-37 5.547954870324957e-32 5.5868958019815686e-27 1.2205498746556548e-22 2.4369262632368895e-19 8.405707906855999e-17 8.71813926434115e-15 3.9001019462464205e-13 9.41142034551969e-12 1.4227424822424397e-10 1.4913982952895897e-09 1.1649052723792953e-08 7.145944140658147e-08 3.5811795427900553e-07 1.5111133469537866e-06 5.496846745511835e-06 1.756326415795162e-05 5.003955726208693e-05 0.00012869124780621886 0.0003017714411807494 0.0006505957331089614 0.001298414819315751 0.002412254238478662 0.004190560302620315 0.0068298585761214755 0.010466156945738136 0.015092004009394136 0.02045989534741372 0.025993602915246983 0.030745083846394843 0.0334517922068415 0.032763532260485964 0.02772084895795723 0.018555040999823542 0.007782690702252421 0.0012202009248421374 1.4971586226468835e-51 7.788576977798078e-46 7.972955975919013e-45 7.836197691685923e-44 4.5355327853328815e-42 1.4617601877869688e-36 3.1190320542465193e-31 2.988578313525255e-26 5.872630618840426e-22 1.052847780774954e-18 3.293279443828388e-16 3.126607502089434e-14 1.2900338488609712e-12 2.8953128834074633e-11 4.09990686265559e-10 4.050540329326008e-09 2.997579997853162e-08 1.749950063411892e-07 8.377151907392608e-07 3.387018810243413e-06 1.1835802378173766e-05 3.640673599678696e-05 0.00010003815112776249 0.00024851228421310823 0.0005636745473007159 0.0011770071283415163 0.0022782276527259873 0.004111365171694872 0.006950947324451404 0.011052804967957639 0.016579410093228924 0.02350492021311403 0.03150861516900344 0.0398680713480569 0.047368309880213705 0.05226954332206777 0.05244033958604739 0.04588488573331574 0.03203225353769501 0.014111240010629338 0.0023690322379775267 2.463159943153419e-45 1.3858019444145239e-39 1.1304099610011635e-38 7.868767917726512e-38 5.4124329915920035e-37 2.0260419412972164e-35 3.1121865577952083e-30 2.6553429079298416e-25 3.9755397836190666e-21 5.620606335558371e-18 1.455106885428058e-15 1.1823215884614048e-13 4.279043062365163e-12 8.593984863976822e-11 1.106012407906806e-09 1.0054674628208755e-08 6.915512409712113e-08 3.7822863374222213e-07 1.7072708604255317e-06 6.543369252294851e-06 2.1769506583608698e-05 6.397992331572518e-05 0.0001684636188106746 0.00040199897588545056 0.0008776696633740746 0.001767151107253549 0.0033034061534637474 0.005765974158671243 0.009443417046910738 0.0145729907142016 0.021264501096576134 0.02942053943682846 0.03866176819196954 0.04825577795819472 0.05703082591418229 0.06326041337598622 0.06458280707095335 0.05825472663941495 0.042452742799782804 0.019731700286770407 0.003423563423899628 2.663571936446384e-39 1.58768594457394e-33 1.1706612232883844e-32 6.536754301461165e-32 3.4201257711814395e-31 1.9016539163627137e-30 2.570579707033803e-28 1.1461116119075309e-23 7.376906019582663e-20 5.899905643515519e-17 1.0359392367327931e-14 6.350356004346817e-13 1.851108637369701e-11 3.129808829244373e-10 3.4985443174119074e-09 2.8266138935895118e-08 1.757825968981704e-07 8.809276940280141e-07 3.6816191961395955e-06 1.3172597756489633e-05 4.118400004266387e-05 0.00011435610888807498 0.00028573169695906273 0.0006493469692735129 0.0013541395189039984 0.0026106842544767242 0.004682726957193262 0.007857172226363441 0.012391533094052849 0.018446501977760946 0.02601848411342613 0.03488956667701936 0.04460403054534761 0.05445759751659915 0.06345405639826461 0.07015537201849217 0.0723967359809947 0.06709904806586274 0.05112090288581328 0.02521408911065783 0.004364404673226013 2.1164282903031023e-33 1.3344144038549385e-27 9.154934248934675e-27 4.3103331970325084e-26 1.7899852170011664e-25 7.673557507467776e-25 6.566291359424146e-24 6.954612969303035e-21 7.385254689274466e-18 1.907768679883863e-15 1.6284355083228299e-13 6.132508518051039e-12 1.2597380181751593e-10 1.6351346239198905e-09 1.4849275726031511e-08 1.0137046513664425e-07 5.479745197324255e-07 2.437831650275249e-06 9.191091600836524e-06 3.0039394094173197e-05 8.664071804501746e-05 0.00022370005807806703 0.0005230717111185716 0.001118265883627311 0.0022033047300828537 0.004027807088696413 0.006871129946047907 0.010993632535465387 0.0165711904281651 0.023629325454320414 0.03199753642469543 0.041302044425511664 0.05100046793488145 0.06043432016886348 0.06883891254869821 0.07520350055173895 0.07785783562221721 0.07383677385113828 0.05886553612834013 0.03108020818370343 0.0051755045682735645 1.3004948926713411e-27 8.914023664772808e-22 5.613468348142629e-21 2.22608849038441e-20 7.357401888181666e-20 2.442204972830277e-19 1.1772454160443926e-18 4.2432975039865493e-17 4.345673167924145e-15 2.444035829588982e-13 7.393442011549751e-12 1.3529727705556574e-10 1.652814306328796e-09 1.4545785424457404e-08 9.776027250653261e-08 5.248414437737423e-07 2.3301608204815555e-06 8.790906885860083e-06 2.879195998630339e-05 8.328055148458862e-05 0.00021570755777933779 0.0005060104481797036 0.0010851616358241 0.0021442710005403253 0.003930053938263954 0.006719273269405707 0.010769783730767816 0.016254325239696207 0.023193221587423207 0.031408128831085756 0.04051776298337995 0.049985178010998756 0.05920702042050408 0.06761057251074071 0.07469760202891454 0.07993314299514383 0.08230818365339473 0.07938218846842399 0.06629351289504017 0.03765749683689327 0.005845449835088608 6.042768515352306e-22 5.099584386391438e-16 2.751350808400584e-15 8.735391449670834e-15 2.206968344137611e-14 5.49204329317762e-14 1.7264606847273496e-13 1.108382537178339e-12 1.2002108509143969e-11 1.3080903348786628e-10 1.1880831066138029e-09 8.81067054384691e-09 5.401487050914006e-08 2.7832971833552856e-07 1.225241417640969e-06 4.677368746273331e-06 1.5697279814201952e-05 4.6876121945947626e-05 0.0001258961006218916 0.0003069457980857729 0.000684889550237551 0.001408447688661548 0.0026858555752764584 0.004775027704018144 0.00795180153718661 0.012455910867751194 0.01842293942586352 0.025819451371077294 0.034403703024084485 0.04373164295405912 0.053215242210288845 0.062225231986029486 0.0702102118552953 0.07679373894680326 0.08180254656897909 0.0851660750905004 0.08653565222569211 0.08429358174730768 0.07344031877858906 0.046075597276512274 0.006364059826122645 1.3037919484499944e-16 1.3067734546329121e-10 7.301835095030107e-10 1.8399034680730809e-09 3.7039643789532275e-09 6.983749708557501e-09 1.3683344734214056e-08 3.648731618623176e-08 1.029518309117345e-07 2.939865384584715e-07 8.331471808225565e-07 2.313780420351124e-06 6.23643266915583e-06 1.6186648101503922e-05 4.0194458668993575e-05 9.501306101219847e-05 0.0002130303032028814 0.00045202640048591647 0.0009067535839502506 0.0017193915782129639 0.0030837645963522576 0.005237062863442774 0.00843369985512338 0.012900055081646338 0.018775423859653792 0.02605189730942122 0.03453119023979279 0.04381641234660146 0.05335009652123664 0.06249644639129889 0.07065302343426429 0.07736401940027914 0.08240518887821656 0.08581353193031684 0.08784769218513706 0.08885668779504248 0.08900563478380046 0.08748045335052439 0.08024495111412358 0.05313452843605183 0.0067365143166408376 1.13530826381091e-11 1.5473178265211897e-05 3.194296320273404e-05 4.997642404884023e-05 7.145277280248847e-05 9.830453715618832e-05 0.00013308392953693032 0.00019545893926352115 0.0002870068387299029 0.0004206530527620092 0.0006153424037622873 0.0008981799961498047 0.0013073308846681994 0.0018955355891904038 0.0027338193255375836 0.003914579593429244 0.005552499612610626 0.0077814288218066895 0.010744761442811598 0.01457795419291443 0.019382394269406113 0.0251938374317429 0.031950729139671404 0.039470214577248794 0.047441673429106344 0.05544422819995454 0.06299076525533982 0.06959346049627925 0.0748404505067981 0.0784671705719983 0.0804072251039838 0.08081131780498656 0.08003119391911455 0.07857342733988855 0.07703586737432416 0.07600789648384149 0.07603536413253532 0.07677762441405696 0.07721487863449275 0.06678380442665596 0.006948024771359769 1.9846375791175515e-10 0.0003665834010529099 0.0002458460671489202 0.0002495048694342748 0.00024703730207131677 0.0002484012713902406 0.00024908863070543066 0.00024939100573524096 0.0002491194158252019 0.0002484214736598647 0.00024736990383247853 0.0002460517564737282 0.0002444970471432045 0.00024271555247697886 0.00024067924993290254 0.00023835836476171645 0.000235676844585685 0.0002325361488947286 0.00022881438679739057 0.00022435601528266122 0.000218993863523194 0.00021257633641128657 0.00020496208134027793 0.00019603490961822104 0.00018580168635892882 0.00017430820494039652 0.00016176577524518415 0.00014843313125266917 0.00013470618187889577 0.00012102805216964189 0.0001078648654714778 9.566931630666953e-05 8.485530635603073e-05 7.577026540882544e-05 6.87205854739452e-05 6.383532409160273e-05 6.187810039218027e-05 5.9870868014475944e-05 8.172880277705765e-05 0.06642158822666523 0.007064480758529741 1.4100731399060597e-10 7.539615828128785e-06 1.2290591667122684e-06 1.2120645967516834e-06 1.200690848827643e-06 1.1834720334532775e-06 1.154673478729687e-06 1.1160113390544034e-06 1.0695539942398375e-06 1.0178419468309037e-06 9.628142434685086e-07 9.05910810159467e-07 8.481677189589517e-07 7.903097923884337e-07 7.328428720026997e-07 6.761725236603055e-07 6.206592849456469e-07 5.664600304447908e-07 5.138425221094165e-07 4.629844634144169e-07 4.141168760767765e-07 3.675081855483045e-07 3.2337038076303747e-07 2.819046279987097e-07 2.434233045945531e-07 2.0811452795220978e-07 1.7616821666831967e-07 1.4768102183199632e-07 1.2273673297867857e-07 1.0128710248462094e-07 8.3217825421702e-08 6.834146804172275e-08 5.6413727178707376e-08 4.716291152732052e-08 4.032254226392779e-08 3.560862274301927e-08 3.301908220909311e-08 3.1893205134879696e-08 2.048744135668322e-06 0.066009963467513 0.007173155773672806 1.0062201693728896e-10 6.3998348793016175e-06 3.57408054200448e-09 2.886029036304716e-09 2.9073358660303636e-09 2.8492100563392222e-09 2.723321481494188e-09 2.5589424048917983e-09 2.3686939555357102e-09 2.1660479936189077e-09 1.960771361890863e-09 1.7592959737003095e-09 1.5659884875625605e-09 1.3834416800998063e-09 1.2133395798563794e-09 1.0564434259249935e-09 9.131889391361894e-10 7.833424975447744e-10 6.667120768277522e-10 5.627123186612523e-10 4.708348429763396e-10 3.904573757702432e-10 3.207485913605881e-10 2.6090148663673576e-10 2.1014402332095082e-10 1.676077166768475e-10 1.3240565736796052e-10 1.0366475059903313e-10 8.05521206344176e-11 6.224861685420876e-11 4.79820403006388e-11 3.7053953623919554e-11 2.8842813261407074e-11 2.2809841519487033e-11 1.851257651837445e-11 1.5567079929587193e-11 1.3884974758500488e-11 8.201001663022168e-11 1.9739448532597124e-06 0.06557916202606252 0.007283775667418229 8.016686911342527e-11 2.1492312869358236e-05 1.594374811151735e-08 8.931851885710455e-10 8.732332731569146e-10 8.509992178713485e-10 8.220211044453609e-10 7.855426642004589e-10 7.409269603142315e-10 6.878405451888164e-10 6.263236257931273e-10 5.568442572226763e-10 4.804534926257103e-10 3.9920442141792123e-10 3.1665872917243635e-10 2.3781327994728193e-10 1.679808473319765e-10 1.1111608527887321e-10 6.868639830537266e-11 3.9662410675056835e-11 2.141304555139244e-11 1.08291468616577e-11 5.146492632164959e-12 2.3121747570975677e-12 9.942835423171777e-13 4.201777192367988e-13 1.8348687343216154e-13 8.88872399146552e-14 5.021733996511673e-14 3.255095389658207e-14 2.2879804260587256e-14 3.5855651802143503e-13 3.427603004124355e-11 8.103353265309868e-11 1.1636601178991398e-10 1.399341109913113e-10 1.5589737189353473e-10 5.430844762255887e-10 6.039841539063576e-06 0.06512818867221616 0.007396037749913488 1.349748129938988e-10 0.00016124196240060223 6.5597704522719935e-06 6.361441142545248e-06 6.359836929108317e-06 6.359087102748698e-06 6.358583059733542e-06 6.358314454690357e-06 6.358207939644665e-06 6.358187580107536e-06 6.357668806903158e-06 6.351964193529724e-06 6.319917952936587e-06 6.205462225586486e-06 5.91875280192754e-06 5.3803996609884885e-06 4.5839089093756365e-06 3.6188430526201796e-06 2.6321353133936677e-06 1.760687370440262e-06 1.0836090954130318e-06 6.142973226831942e-07 3.2099592717574734e-07 1.5450293651463405e-07 6.828495012803881e-08 2.7517252404496225e-08 9.976619018774057e-09 3.1759281606970158e-09 8.477860519100648e-10 1.722770197724771e-10 2.1009874569586998e-11 1.4613600549508961e-08 1.066219111479708e-06 1.896470430395477e-06 2.279701453903132e-06 2.519720822541206e-06 2.7043874021971327e-06 2.8436044792213183e-06 1.5565684596507038e-05 0.06465542835689667 0.00750963293404268 9.09914273416886e-11 4.621088086118708e-09 4.926395302036014e-09 5.4270666930878895e-09 6.144859178830157e-09 7.129732750392367e-09 8.421546226214748e-09 1.0612854460284196e-08 1.0037316862979319e-07 3.7863970080290948e-06 6.358635463762678e-05 0.0005375905146162761 0.002677374477432958 0.008788471363020597 0.020637787767118356 0.03685825686097047 0.05244518596478853 0.061613243991036 0.061431272708989945 0.053097378605352505 0.040436323380261416 0.027462371840675466 0.01677343939372198 0.009258366574482845 0.004622616805474917 0.002079573310880587 0.0008337978544599345 0.0002913596741471173 8.489019898170944e-05 1.8752252218116634e-05 2.419667187928502e-06 0.00045199946631459357 0.01893082584322437 0.020567930811068363 0.023213979318787468 0.02917397806522383 0.03427573521265853 0.03750052341397338 0.03929205116398472 0.041011346758643125 0.007634687371184747 4.859418258386341e-11 3.2707775620077303e-09 3.821342675233996e-09 4.282142424214345e-09 4.734804948533263e-09 5.2575336914627815e-09 5.8817294876991336e-09 7.300613804016274e-09 1.1312811514937848e-07 4.4367284338587935e-06 7.311966212780838e-05 0.0006051808901863685 0.0029512430904149478 0.009496476304319969 0.021892196605497422 0.03844555110814322 0.05387628258475922 0.06243026478669846 0.06148120949386192 0.0525555620038291 0.039632417088215556 0.026686414377176206 0.016182003101351313 0.008881362199217625 0.004417829813630604 0.0019851846146421433 0.000797932192072095 0.00028108426077512775 8.334049347841292e-05 1.909790059516635e-05 2.7049286756442804e-06 0.00017604325206806544 0.01870144582096224 0.020601589307042735 0.022234947366834196 0.027274840685490433 0.03135462817703613 0.03314355242337241 0.03290287447737294 0.02916341307940868 0.007863794706584371 1.9549997006450734e-11 2.392475075587628e-09 3.2463274655312932e-09 3.727625632315997e-09 4.144648782133466e-09 4.56121146185186e-09 5.01475973243501e-09 6.575941786540766e-09 1.6469230193074308e-07 6.368158634229725e-06 0.00010006435707922861 0.0007875111291585437 0.0036547225336473342 0.011220485379571498 0.02476861445073012 0.041813010124874636 0.056546976555292394 0.06346871096976626 0.060752778342532794 0.050645427436995766 0.03736725531066454 0.02470130427319321 0.014759808277376659 0.008017834504554379 0.0039690482708824104 0.0017875634877179694 0.0007272563314984505 0.0002630408813692698 8.193827769020785e-05 2.0604638008192028e-05 3.5973638865638175e-06 7.8401137524415e-05 0.0174258572513003 0.02093508728938051 0.02106672603970446 0.02531059612359684 0.02895141055649013 0.030278006169783264 0.029173815173603408 0.024228893480889392 0.008258300790985468 6.583614349159426e-12 1.9802140802012056e-09 2.863101412821571e-09 3.3954612756079866e-09 3.808679463687438e-09 4.190363130994662e-09 4.577526292074776e-09 7.3510876164559226e-09 3.300104521946204e-07 1.1856769066979042e-05 0.0001691413270614918 0.0012103610806272795 0.005137060152403389 0.014537110693533008 0.02982682908923068 0.047180149780739956 0.060230587742146444 0.06424432385848476 0.05879620207097137 0.04712787509169216 0.0336157224774096 0.02160254609032564 0.012624636632801955 0.006754168535422495 0.003321063584699284 0.001502019775789824 0.0006226535951128855 0.00023421551129741157 7.82602483570638e-05 2.2265221978912486e-05 4.94459432906005e-06 3.481908180987328e-05 0.013298322777339612 0.022020334548217082 0.02006081250087254 0.023253777855734733 0.026820482410521193 0.02818174450331291 0.026935690214088242 0.022026924921532506 0.00878537457818525 1.96409423877502e-12 1.7675634265205332e-09 2.654570883950538e-09 3.2033656593289294e-09 3.618800159402641e-09 3.982859692954362e-09 4.345049764885323e-09 1.4283132447753908e-08 1.0536417754491693e-06 3.118653548861555e-05 0.0003692021189055046 0.0022378934306275015 0.00821574970756787 0.0205037016128636 0.03773929095312633 0.054341199731112684 0.0639383115221117 0.06352587108410068 0.054654265762232826 0.041522374512503506 0.028289774357718588 0.01749866537675721 0.009923598015706941 0.005199694947661251 0.002531644673919515 0.0011494170337578294 0.00048689666407109223 0.00019166524637282588 6.93200652587647e-05 2.2487285791254916e-05 6.25035114106023e-06 1.5209645878206276e-05 0.008280058837123435 0.020057715873323934 0.019895214685460055 0.021161352920988138 0.024713938904926177 0.02653489858689892 0.02567601254763443 0.021197098123828986 0.009415474057245542 5.546432358449594e-13 1.70593586266517e-09 2.5862158649491924e-09 3.134836491290764e-09 3.5426989176551906e-09 3.89049372184228e-09 4.59612355338938e-09 1.1426960326554203e-07 6.616311026020699e-06 0.00012704129093675797 0.0010729712047132787 0.004972400927105148 0.01469176534359292 0.030681199935439486 0.04869242907172692 0.061885936345424886 0.06547800493010464 0.05938897286621261 0.04723461644738579 0.03353809225557255 0.021568382411368447 0.012714435045545373 0.006940311556835703 0.0035388256122637655 0.0016982678141059526 0.0007718774309026711 0.000333760632914436 0.00013752169872695446 5.382327387694725e-05 1.978903021789819e-05 6.681620597154629e-06 7.009210884560301e-06 0.004303189325572911 0.014741564599799544 0.01877576582846315 0.01985741951321997 0.022513634456948574 0.024783869028229096 0.02475894488841933 0.021051745697532466 0.010094218071127585 1.5904525957904119e-13 1.7494157580920402e-09 2.6586550225910743e-09 3.353366032254714e-09 4.6572997411733116e-09 1.0433492005710591e-08 9.380829827224029e-08 4.43103050949751e-06 8.699338109520608e-05 0.0007923829313792035 0.003969457201831278 0.01253793254169712 0.027644416619857448 0.045840820138266014 0.06038308749130675 0.06580996594153392 0.061207678853501875 0.04975679933650835 0.03603091405329616 0.023604337923057706 0.01417217069850182 0.00788727491102416 0.004110534350447099 0.002025417181667486 0.0009523238299980569 0.0004310879533905722 0.00018941404103249744 8.131385702122407e-05 3.42179360695613e-05 1.4083023690420069e-05 5.611222346217531e-06 3.67791794522526e-06 0.0018463681488592894 0.008662818434307905 0.014809068688229187 0.017865747241247003 0.020363557199899313 0.02277117933703056 0.023667984913966697 0.021039303871998254 0.010758916868007652 3.650727163908968e-13 2.751273366858805e-07 1.7280202743776239e-06 6.9761852582298414e-06 2.1534304761473877e-05 5.9095689567476256e-05 0.00015633347120594756 0.00042493060715643327 0.0015467536483432629 0.005663955485040463 0.015174431664791235 0.030469487086387647 0.04777672224951518 0.06076724275206749 0.0647326218487457 0.05928416838774916 0.04768122531099593 0.034269992786366735 0.02233372589022995 0.01336364208095135 0.007423820135565214 0.0038687580161687334 0.0019104221497660042 0.0009031274505455222 0.00041312334757678863 0.00018493513326754113 8.195650489422507e-05 3.635329969079705e-05 1.6281179622382366e-05 7.3921844717643255e-06 3.392422480068077e-06 1.9439121137587305e-06 0.000627136681372458 0.003947041674324316 0.009062718818019183 0.013542929815552144 0.017078368509788014 0.02011232645452851 0.02213910716826632 0.02098087445221904 0.011343203577017173 5.278750733925824e-11 5.034437901031122e-05 0.00028281565396419736 0.0007106584990257524 0.0014244792173701505 0.0026359535827663195 0.004706773945003769 0.008286151330685646 0.014636793017636531 0.02620220845136595 0.04058549721558508 0.05335836547193607 0.0600380710491888 0.05858224560470819 0.05028479541709418 0.038496103482179106 0.026617954088157016 0.016813185113952047 0.009801978726699906 0.0053249609845636885 0.002720615797769963 0.001319408513231493 0.0006133255270931176 0.00027620084671454103 0.00012194689103818387 5.3500257114456285e-05 2.367016379594736e-05 1.0723372965753939e-05 5.04403649695804e-06 2.4873910664403014e-06 1.2889072659214868e-06 7.663863550931025e-07 0.0001528735807743048 0.0012805279986642282 0.003924332891261557 0.007542000832202641 0.011407884094092751 0.01535416565047585 0.018952331317489645 0.020403479886453784 0.01180036442654631 2.754071789608663e-09 0.003252823543972708 0.006694747356666303 0.010308950425767622 0.014405815339780246 0.019208767560086878 0.024887671702653144 0.03147813799823879 0.03874528065567014 0.04558189386216074 0.047147078430483214 0.044150314614331665 0.03743508465181004 0.028825531283134247 0.020260664097236692 0.013081026783735187 0.0078104002097264145 0.004342525151744826 0.0022639807309837714 0.001114715366085801 0.0005222425445468484 0.00023472061234002133 0.00010214660632700361 4.3510007100861615e-05 1.8375352511247222e-05 7.812679465460234e-06 3.4043473161146792e-06 1.5506222746920635e-06 7.529694017773624e-07 3.9615130581879105e-07 2.2763664409429898e-07 1.4911247343745267e-07 2.0453980818111146e-05 0.00022940502827217065 0.000941174402738184 0.002367261095136502 0.004588016643097399 0.007394722497198717 0.012110686196957692 0.015609163820241446 0.012074623204866488 1.8962210350677507e-09 0.0003117446417296066 0.00020890956820008587 0.00020910143799548017 0.00020191573886679326 0.00019558534322599859 0.00018575343671493132 0.0001718475800169196 0.00015292652549862533 0.00012788760235962068 0.00010040595181138277 7.380955420738563e-05 5.0646715176134286e-05 3.242265874656895e-05 1.939143016292274e-05 1.0864400248312601e-05 5.723054219269973e-06 2.84659194794001e-06 1.3434095795548928e-06 6.048065658089608e-07 2.613171052288505e-07 1.0913206968186713e-07 4.4422697057227405e-08 1.7802091547139323e-08 7.110645301599561e-09 2.8730067945485816e-09 1.1951250099778037e-09 5.218341429575815e-10 2.43866699273372e-10 1.2392012996300182e-10 6.900202338033896e-11 4.636008300270027e-11 1.9272575488524932e-08 3.236878743947493e-07 1.8498317821676907e-06 6.129526244635115e-06 1.5034631498956636e-05 2.8342790284452168e-05 7.330273444501781e-05 0.015566908501179266 0.01222836707213203 1.2146314247189228e-09 7.08330875960638e-06 6.845822970137979e-07 6.190664739612584e-07 5.557385491198795e-07 4.873915040597867e-07 4.1163706709928867e-07 3.314533200513043e-07 2.511250997008583e-07 1.7713822712270404e-07 1.2038298022567208e-07 7.71019012432971e-08 4.6466626853433666e-08 2.6363863028266227e-08 1.410599707222005e-08 7.134021417006594e-09 3.421323231374829e-09 1.5612898814769394e-09 6.807937772905466e-10 2.850048866184796e-10 1.15163769007108e-10 4.521295597411779e-11 1.7382330909412434e-11 6.607922956140132e-12 2.5138947509713413e-12 9.709869498641798e-13 3.8752178105704727e-13 1.6286957456582494e-13 7.349651083225535e-14 3.616894925804794e-14 1.9552321123467777e-14 1.4108966099361459e-14 1.4004722181379291e-11 3.098209133924585e-10 2.2002216228536944e-09 8.636306083282166e-09 2.4092455435993836e-08 5.0994244192323613e-08 2.266349076313941e-06 0.015522731439903636 0.012371597986913657 7.783172211827907e-10 6.398938347476719e-06 1.961301460795227e-09 9.990574786133988e-10 8.707549486192324e-10 7.209768909311254e-10 5.615239239253381e-10 4.085525268864004e-10 2.746818609824636e-10 1.7158185830204383e-10 1.0519076327921205e-10 6.094041768842346e-11 3.3354544091668626e-11 1.7274522493229913e-11 8.488224957045024e-12 3.971047585688033e-12 1.7777836909508994e-12 7.678271634738342e-13 3.246061033952823e-13 1.3806903041342705e-13 6.201770716951e-14 3.1438507062921086e-14 1.8875575172407907e-14 1.3252286574793985e-14 1.0275277876475319e-14 8.332814163385659e-15 6.834526804410351e-15 5.565739145469438e-15 4.447016792375693e-15 3.4464291474703755e-15 2.5485814488668035e-15 1.7453437403088515e-15 9.485171698716464e-15 2.3194438818066986e-13 1.945145109928449e-12 8.639902154963208e-12 2.6327802279818934e-11 1.7164142758267284e-10 2.1324826845115268e-06 0.015479961675446205 0.012516816328905724 5.077334903487289e-10 1.9626775512939868e-05 1.2946252944143461e-08 8.867780075050283e-10 8.679372700053326e-10 8.488658165518499e-10 8.27428248165045e-10 8.041381178348487e-10 7.794278464718447e-10 7.536469947596113e-10 7.270614511280433e-10 6.998611727814924e-10 6.721985213822856e-10 6.4418695455558e-10 6.159098973452343e-10 5.874275313004438e-10 5.587808238502054e-10 5.299954148226078e-10 5.010844816643165e-10 4.720492477307401e-10 4.42880730241306e-10 4.135609773175979e-10 3.8406404902121053e-10 3.5435817357455836e-10 3.244062432377895e-10 2.9416838736342615e-10 2.6360077320518985e-10 2.326513090068641e-10 2.012513763723898e-10 1.692945044921911e-10 1.3660435281105545e-10 1.0287842968282661e-10 6.76115843187778e-11 3.014826677602383e-11 4.177787061466833e-11 1.2556374643617371e-10 1.5190055041637044e-10 1.0066113813202628e-09 7.851097108451022e-06 0.015438508461891159 0.012663613493011719 4.0067459405252486e-10 0.00013227550065232754 6.50695850829885e-06 6.368956805839033e-06 6.367466848309522e-06 6.366582207548886e-06 6.365843951621365e-06 6.365261123848838e-06 6.364782101246809e-06 6.364382491860616e-06 6.364041399705701e-06 6.363746767400058e-06 6.363487408418049e-06 6.363256189565336e-06 6.36304401730693e-06 6.362844825467935e-06 6.362638378243898e-06 6.362367947462783e-06 6.361898215327644e-06 6.360915655671234e-06 6.358753752484206e-06 6.354124517048322e-06 6.344730955055753e-06 6.3267583524564345e-06 6.294271532253302e-06 6.2385540674798e-06 6.147394138907515e-06 6.004250946787177e-06 5.7870818962289475e-06 5.466204157611068e-06 4.999888649078863e-06 4.32442396364138e-06 3.330282177651119e-06 1.8035358239296456e-06 1.320063552368365e-06 2.767891265750999e-06 2.9481381071637586e-06 3.01858437781403e-06 1.9759906596173234e-05 0.015398268433169148 0.012811575597992992 2.479563373757134e-10 3.758196833182993e-09 4.042291360246251e-09 4.475824781974372e-09 5.0355955654389346e-09 5.715031512562624e-09 6.496023397967842e-09 7.3620667567941e-09 8.297998359018085e-09 9.299606724626076e-09 1.0491562969149734e-08 1.321076998405316e-08 2.7112207999699338e-08 1.055511904721722e-07 4.855212931664284e-07 2.041880138680467e-06 7.5269372077351635e-06 2.446223013458843e-05 7.096975810169896e-05 0.00018599314654994725 0.00044483347123945496 0.0009793410220784303 0.001999488106472443 0.0038098311126009915 0.006812056723893304 0.01148365413752472 0.018324491118957092 0.02776449594523131 0.04002187661658161 0.05488515132259081 0.07132243172895578 0.08661058665157274 0.09387795577437309 0.07349452580889027 0.022812324316718726 0.018965891530703657 0.015585888534082151 0.014655598358225427 0.014302647925051083 0.014586487641200255 0.012973549928770608 1.1604584164287682e-10 2.584608252784869e-09 3.014993382282521e-09 3.342540609981238e-09 3.613283252986923e-09 3.863200878023097e-09 4.095108227152103e-09 4.308785684997694e-09 4.502592853955085e-09 4.686292755752775e-09 5.0222362430903025e-09 7.10316396529594e-09 2.2222280499511315e-08 1.1203856882529363e-07 5.474658445549476e-07 2.3182561199371234e-06 8.506280689749517e-06 2.7448485256442737e-05 7.90257864249805e-05 0.00020550544651416197 0.0004877030788547507 0.0010654002701045487 0.002158211369879437 0.00407976840026734 0.007235982007251387 0.012097948773603286 0.019142456390784802 0.028755830835287193 0.04109568044489168 0.05588908406625129 0.07208470924361483 0.08707795135978484 0.09449583591692183 0.07638738806248181 0.022454559038620547 0.01960019430727745 0.015888436980881854 0.014866792919501442 0.01445633034156706 0.014332540466656458 0.013263678766166251 3.7894003275790626e-11 1.7663367575771257e-09 2.416596137376149e-09 2.7457348802180423e-09 2.9811765505325777e-09 3.1622119350564323e-09 3.3077197859372573e-09 3.42565611191669e-09 3.5217146980572378e-09 3.6167932860042654e-09 3.9585293016347006e-09 6.863108805303674e-09 2.8241619782241246e-08 1.525198056394495e-07 7.40820545226975e-07 3.0790339204679276e-06 1.107239797601562e-05 3.5025874225220045e-05 9.890782885101391e-05 0.0002523798066208296 0.0005878550241179136 0.0012605941729270846 0.0025067625565714366 0.004651290006946508 0.008096367460324286 0.013283018459314486 0.020622844485546816 0.030403261060140734 0.04266912947032772 0.057069569730655446 0.0726011996464976 0.08699874843974861 0.09490219380983131 0.08135604186886156 0.031791983838828884 0.021008051138263352 0.016430011650068535 0.015205882331056242 0.014737600502582535 0.014480288256481856 0.013738098062877171 9.394440042407466e-12 1.3169989589881842e-09 1.939434611797338e-09 2.2966037541456668e-09 2.5295672236844407e-09 2.6967200689240654e-09 2.8210974028959553e-09 2.915308678027017e-09 2.9888141702