# vtk DataFile Version 3.0
vtk output
ASCII
DATASET RECTILINEAR_GRID
DIMENSIONS 41 41 1
X_COORDINATES 41 double
0 1 2 3 4 5 6 7 8 9 10 11 12 13 14 15 16 17 18 19 20 21 22 23 24 25 26 27 28 29 30 31 32 33 34 35 36 37 38 39 40 
Y_COORDINATES 41 double
0 1 2 3 4 5 6 7 8 9 10 11 12 13 14 15 16 17 18 19 20 21 22 23 24 25 26 27 28 29 30 31 32 33 34 35 36 37 38 39 40 
Z_COORDINATES 1 double
0
POINT_DATA 1681
FIELD FieldData 1
Concentracao 1 1681 double
0.0 7.128671371512554e-42 1.0611359575587945e-35 9.081485292891003e-30 3.098245918447122e-24 2.351664366031765e-19 3.5085284313706223e-16 5.428216144374775e-14 2.1481596758111946e-12 3.433884314495489e-11 2.874070149017102e-10 1.481080220275444e-09 5.244438439870153e-09 1.3784682947165725e-08 2.8476133342866217e-08 4.8278832170706525e-08 6.948123559349227e-08 8.719595815614661e-08 9.754147912090696e-08 9.906920207156084e-08 9.281101760946485e-08 8.13171943724066e-08 6.746048604897961e-08 5.358445863723525e-08 4.1165237664247053e-08 3.086736040204884e-08 2.27836661176141e-08 1.669296536330287e-08 1.225640983605605e-08 9.134688887091385e-09 7.0435361859722215e-09 5.770940164410312e-09 5.175634285056851e-09 5.1796404631542275e-09 5.7621039142942275e-09 6.9596724202368006e-09 8.878346465865573e-09 1.1719080132882135e-08 1.5782014031340103e-08 2.122947823012334e-08 2.6768915671109947e-08 3.0048993116740924e-42 8.910846343062064e-36 1.3264210080844507e-29 1.1351865697599047e-23 3.872810496304821e-18 2.9395828065932096e-13 4.3856640477417093e-10 6.785275186827429e-08 2.6852016093685605e-06 4.2923586630678986e-05 0.00035925905603415264 0.0018513515739045478 0.006555553294276131 0.017230867468640103 0.03559519452242138 0.060348588492215326 0.08685161397310094 0.10899503479433481 0.12192694535968902 0.1238365982491247 0.11601386482284867 0.10164656913684916 0.08432567502171057 0.06698062206225315 0.051456588245546483 0.038584231369921444 0.028479605430683744 0.020866223397093955 0.015320524347368547 0.0114183696959 0.008804427276001463 0.007213680732991524 0.006469548031955349 0.006474555758583247 0.007202635654971699 0.008699597260888724 0.011097941595972615 0.014648861429823306 0.019727532778041297 0.026536868427894975 0.03346117020807821 4.277356292368962e-38 1.9002234315208914e-32 4.3682728111341525e-28 2.668466429984391e-22 7.031115659568495e-17 2.2662897209860276e-12 2.2313597163164188e-09 2.7157567308502165e-07 9.037177154186598e-06 0.0001255136932849627 0.0009305112960985658 0.004303391850866246 0.013798593815247631 0.033047924213418366 0.06244479427513945 0.0970003349431374 0.1278652171754467 0.14664254018281614 0.14926734779494538 0.13707044937011137 0.11510635062214189 0.08942901414071963 0.06494462704206823 0.044507918386233906 0.02905969269241779 0.018267179166466026 0.011202107174239554 0.006827535827827218 0.00425496285790672 0.002831578312629301 0.0021343500093533516 0.0019313259203056243 0.0021446827498762867 0.002830546596872693 0.004178947888345761 0.006532230189040461 0.010420292817302076 0.01660728557867897 0.026069041925095068 0.03935969953307518 0.05312552297749118 3.0860270223139713e-32 1.607972248176719e-26 4.6577741407559205e-24 1.1821672483543133e-19 5.884665654960484e-15 3.1270938667322225e-11 1.451877440277079e-08 1.1810514901086358e-06 2.9966257222670173e-05 0.00033835738183046835 0.0021196193277914738 0.008501776302293384 0.024090105151955428 0.05170725316183817 0.08848852919322885 0.12547882659660017 0.15186214752426538 0.1605366131190862 0.1509873545587512 0.1282371026691277 0.09956471470251974 0.07139351229647538 0.04769447172212253 0.02991380564375249 0.017739528416550143 0.01001717170167703 0.005429893808506348 0.0028578188135559984 0.0014908964688450084 0.0008071220620709962 0.0005037447526936027 0.00043179969540548327 0.0005568386448326253 0.0009553699816341477 0.0018526427895377336 0.003705632375113249 0.007328537004017487 0.014036074989918284 0.02567003453302854 0.04368070630874624 0.06362524718978477 8.293347640329729e-27 4.710292354449202e-21 9.642251169396316e-19 1.1358261650475668e-15 1.6857802251057388e-12 1.0276553513218637e-09 1.5928210537615864e-07 7.026944786190351e-06 0.0001194272876260317 0.0010068990412388163 0.005024776037164925 0.016764122745389236 0.040734688233219345 0.07668502831897413 0.11708082636325728 0.15007725291043716 0.16587636692826407 0.16143198664412278 0.14066477171906527 0.11123679122272104 0.08072546842195971 0.0542633763701945 0.034053291610123416 0.02008758804358709 0.011205751509159274 0.0059445310005787335 0.0030153562212046907 0.0014715452445032817 0.0006971452259058478 0.0003271229656715046 0.0001625564839983506 0.00010737077416706364 0.00013436523224429696 0.00028532917450440145 0.0007184362929915357 0.0018298936458568513 0.004482420294187755 0.01034439122452287 0.022168117234258617 0.04293733101107419 0.06837906957963277 4.050067312245327e-22 2.43661515406401e-16 1.6755707240321173e-14 3.076088202790168e-12 5.955827947912712e-10 6.40443029350783e-08 2.9683235388760583e-06 5.970403311162711e-05 0.0005958469333551209 0.0034222089087968845 0.012763662205621048 0.03384667938547439 0.0682413056998753 0.10997307561773109 0.14712044128064553 0.1682094987371521 0.16815295275775494 0.14965304564463866 0.12031554114991731 0.08842800791162467 0.060005253201188935 0.03790912909154841 0.02245740281331606 0.012553158580917479 0.006658084996479429 0.003368047694313981 0.0016329376062499835 0.0007625509779749767 0.0003449083854177977 0.00015239826676138153 6.747142609419854e-05 3.4149366160670165e-05 3.262697625792455e-05 7.670687151108547e-05 0.00024728712373883966 0.0008034339400036921 0.0024541564541172077 0.006890916721724025 0.01754298247452501 0.0392763677078646 0.06979120960646415 2.414994651434628e-18 1.6275599910454378e-12 3.185718153100288e-11 2.534845384812111e-09 1.6368312752556595e-07 4.90107585490326e-06 7.418731136983608e-05 0.0006401607804266262 0.003451219016607523 0.012590397413871352 0.03328114473249654 0.0674262183213374 0.10949409001329474 0.14766034259589614 0.17006589519977497 0.1710588868561218 0.15298363991394082 0.12343922203031765 0.0909466949300207 0.06180083187275468 0.03906187001450926 0.02313246522141634 0.012917137553780786 0.006840000848392362 0.0034527037373588178 0.0016696493913388394 0.0007772598082775947 0.00035006694258539847 0.000153363913917131 6.577852259748504e-05 2.79396799173097e-05 1.2408956068095236e-05 8.377881272059532e-06 1.823416971194373e-05 7.364581731654367e-05 0.00030763952060476656 0.001188789935517365 0.004145016043765445 0.012780498442683051 0.03409694541335009 0.06948243200817765 6.903811391307227e-13 6.245470128014202e-07 4.577416261881973e-06 2.196346482167797e-05 8.027436477157397e-05 0.00033822429291025186 0.0017361404911478452 0.0066012176314536 0.019095294968137347 0.0433326855604029 0.07931208759078624 0.12016605344225993 0.15431047328847355 0.17146765455911658 0.16783107350946308 0.14690151830698256 0.11646353260624544 0.08453995675082984 0.05670835271744307 0.03543109635607077 0.020761913001239907 0.011480003551966572 0.006022713480776527 0.003013121143305638 0.0014444858963716832 0.0006667367181713175 0.00029776450954072076 0.0001293501988673056 5.4981939540691864e-05 2.3028217960864618e-05 9.592056900856172e-06 4.072663506203759e-06 2.159479256579756e-06 3.6624391649420036e-06 1.7876553542542776e-05 9.721142856286246e-05 0.0004860195085394029 0.0021683767085958054 0.008531599921497416 0.027599882335181788 0.06850620798808736 1.6780750842675563e-10 0.00017421614639888397 0.001107670177372131 0.002889451141194663 0.005958257972902902 0.01146964872083174 0.02282513316470953 0.04383500516932381 0.07385561788131012 0.108782945053578 0.14053245474122664 0.1602846459056513 0.1627900360453496 0.14860962387312743 0.12308167678432454 0.09330040028352234 0.06525531956872291 0.04241792361887852 0.02579404787855774 0.014759534530332451 0.007989454126227842 0.004111231578197385 0.0020203331762040297 0.0009523122326113643 0.00043245278170002025 0.00019004910869615824 8.12246161761271e-05 3.394779738941178e-05 1.3965981832035729e-05 5.700762499472589e-06 2.332456888725138e-06 9.729719346562747e-07 4.5780440530264617e-07 5.614520560600447e-07 3.134963340116817e-06 2.266786578318996e-05 0.000149369268785068 0.000898012023454997 0.004706864513452564 0.02240783934461393 0.0674745307651452 9.195175290183186e-09 0.012385002382260138 0.025376300345247498 0.03906233014863585 0.05457416999288186 0.07280592614693523 0.09459562907785804 0.1140849150098714 0.12809108126665725 0.1332143289303816 0.12789756362886465 0.11325928666148213 0.09263416542119823 0.07018299225065402 0.049448207382075456 0.03254032256498021 0.020091038631597967 0.011690120105356654 0.0064376931749700215 0.0033690068017709703 0.0016819960383132827 0.0008041327501353267 0.0003694902604172954 0.00016377954653547345 7.030282926131911e-05 2.9346680198245876e-05 1.1969384471668129e-05 4.796722902537016e-06 1.90180195787521e-06 7.525537094162152e-07 3.00640756597261e-07 1.2327043684217414e-07 5.4837171166997054e-08 4.949041162124983e-08 2.96168206355811e-07 2.899030300813874e-06 2.6839852617107374e-05 0.0002050765666191465 0.0019110526821036926 0.010390652058179602 0.0667913979432885 6.390129020251392e-09 0.0003580347218729541 0.00023051805278519291 0.0002244339277467756 0.00021114040163379 0.00019868902997875558 0.00018200124048863394 0.00015972809406147095 0.0001342455529564418 0.00010746778303621748 8.158693434911686e-05 5.858911050378559e-05 3.975682431758129e-05 2.5500265754934426e-05 1.5479872039117615e-05 8.91175974910585e-06 4.877149104536568e-06 2.5439824761367218e-06 1.2682489793041605e-06 6.059337034700993e-07 2.7821647220873806e-07 1.2311896093075481e-07 5.266264705566846e-08 2.183663496033291e-08 8.807605318931754e-09 3.4677847422633504e-09 1.3387577436357834e-09 5.093197192356399e-10 1.9221494352812625e-10 7.256924877109342e-11 2.7721266466506614e-11 1.0960736451789819e-11 5.6847097736216115e-12 1.734443746714675e-11 1.823159278476607e-10 1.9408421050713773e-09 1.9065254582314578e-08 1.4838267976147482e-07 1.9956289619319987e-06 0.010404375477876305 0.06638724709956839 4.423837891478694e-09 6.690426450095701e-06 2.6760263917886353e-07 2.2711019154283992e-07 1.9209177202138133e-07 1.583061397966551e-07 1.2481835133775423e-07 9.543139697639655e-08 6.97217696159385e-08 4.855389157601659e-08 3.2184176410453606e-08 2.0294719753155102e-08 1.2177413307397794e-08 6.958990198938164e-09 3.792746960913641e-09 1.9749010071583075e-09 9.845208693942436e-10 4.708189480458901e-10 2.164821493257511e-10 9.591144616170708e-11 4.103949066904255e-11 1.700124481528003e-11 6.835100214735749e-12 2.6734436629577633e-12 1.0205187730867933e-12 3.8141583053507227e-13 1.4013480896249908e-13 5.085371379173477e-14 1.8345041883525942e-14 6.631838146227631e-15 2.4310554670277908e-15 9.488865555423274e-16 8.236570686759327e-16 6.072263669363153e-15 7.085531265060057e-14 7.676333184905701e-13 7.585056528610965e-12 6.221674232992594e-11 2.1033158093703601e-07 0.010414413714482913 0.0659865832719673 3.060774726542141e-09 6.399386366180636e-06 4.462333965269047e-10 1.2941148089509178e-10 1.032771654531063e-10 7.815233704959773e-11 5.5480613312385324e-11 3.855507466361149e-11 2.5497177210592527e-11 1.6044528006063273e-11 9.615486975507929e-12 5.494055048063131e-12 2.997241869945299e-12 1.5636305682774361e-12 7.815010817764207e-13 3.748863644360345e-13 1.7295933292782482e-13 7.68843624795293e-14 3.2998496041641037e-14 1.3699201646090047e-14 5.5126811038165304e-15 2.1550663242560663e-15 8.20082361538351e-16 3.0447139437574113e-16 1.1060236414424742e-16 3.943232363681015e-17 1.3848233074178191e-17 4.812621084970214e-18 1.665204681861765e-18 5.782404376886355e-19 2.0431538718496965e-19 8.387232033228129e-20 2.068398190906781e-19 2.2522599413458323e-18 2.3311028240855625e-17 2.321646206760436e-16 2.232086073018399e-15 2.3553788162491587e-12 2.0496420601374233e-07 0.01041940832027542 0.06555527732961312 2.1261469704566704e-09 2.1530797950311314e-05 5.199206037080333e-09 2.7572425657709505e-10 2.5902317645769157e-10 2.3691417535839513e-10 2.0817780673109098e-10 1.7227605314025632e-10 1.3034811035463477e-10 8.714774820422584e-11 5.0088972811068284e-11 2.4421661251228185e-11 1.0105755949616584e-11 3.5835662808071788e-12 1.1043139649359017e-12 3.0021320385322597e-13 7.30314420440881e-14 1.609695109355035e-14 3.2486529028236968e-15 6.055388248325979e-16 1.0499526597840823e-16 1.7050214866655183e-17 2.6163518964614775e-18 3.862885905110512e-19 5.730438849795819e-20 9.359806846552713e-21 1.8951671981266906e-21 4.908108962268125e-22 1.4907681727656296e-22 4.864052016660878e-23 2.1872931554093835e-22 1.8915572209006656e-17 1.0618224456089551e-14 1.1048404476202789e-13 4.963321755860958e-13 1.3286096608672365e-12 2.5083677153149987e-12 1.6267801502479962e-11 6.222567821533895e-07 0.010419273510528562 0.0650943212435882 1.550740784514677e-09 0.00016198393370577652 6.4523222229405805e-06 6.3873686854774604e-06 6.3868796875851036e-06 6.386547927808072e-06 6.3818807864314365e-06 6.326141410111692e-06 6.0319862180043264e-06 5.215256638703939e-06 3.854977620637778e-06 2.359130533674634e-06 1.1896078562877734e-06 4.9998410593031e-07 1.7833963964836707e-07 5.503127203761797e-08 1.4954110178124115e-08 3.6335295339668502e-09 7.994463143301886e-10 1.60867770992324e-10 2.982591688850406e-11 5.1208964881123335e-12 8.161693442745281e-13 1.207047078412193e-13 1.6498511976049636e-14 2.0657521792795046e-15 2.331169145236266e-16 2.304224337522439e-17 1.8939805366692285e-18 1.1672755894197387e-19 3.602439800577353e-17 4.565836726985538e-12 2.277217979053246e-09 2.0712600202620994e-08 8.053281662741421e-08 1.865427801991409e-07 3.088957485330699e-07 4.149085302596609e-07 1.781519044251325e-06 0.010414229102038453 0.0646050400352608 1.045385462417852e-09 4.642351885850802e-09 4.942665616732767e-09 5.459163101300418e-09 1.601068671168792e-07 3.249057738432078e-05 0.0010083677560527534 0.00981559366854819 0.04232415553733742 0.09860698690396896 0.1415093123543368 0.13749236970679213 0.09718792298880884 0.05286842054759751 0.023138308359372323 0.008439832668107097 0.0026384747707264193 0.0007226757532191943 0.00017643535931381805 3.8906883818852566e-05 7.825798187860637e-06 1.4456106383906114e-06 2.461760439838295e-07 3.8672980221168136e-08 5.587007815727305e-09 7.362145316032451e-10 8.711431577747941e-11 9.000133261714516e-12 7.711206805206261e-13 4.935831143353828e-14 4.2753656528045814e-12 9.76807837186932e-07 0.00042036726962765765 0.0032111700929575806 0.010257728244193702 0.01934842372386967 0.02647517948025111 0.030494047271618335 0.03241661410244947 0.032440337844168665 0.06403988641084903 5.582649604367589e-10 3.2858285167439913e-09 3.836800134557848e-09 4.322459785319734e-09 2.1806414842532928e-07 4.137747746577103e-05 0.0012140662428065101 0.011288229740519014 0.04668113849815446 0.1045958892987055 0.14475486417198632 0.13602628899999075 0.09326855474588948 0.04935509907876303 0.02106870991267086 0.007513522120106277 0.0023013006273654634 0.0006187118233858646 0.00014851631853922108 3.2249382765540836e-05 6.396988088469623e-06 1.1670713727887138e-06 1.9661300477888894e-07 3.0615715367044456e-08 4.394949007415836e-09 5.773794686942233e-10 6.842752355673055e-11 7.130924778098291e-12 6.235788131870929e-13 4.169388771996954e-14 4.994095441296769e-13 7.857210033167762e-08 0.000306084018827531 0.0027587556284419607 0.009605288908142962 0.019212186271176733 0.027553649725305177 0.033229802694945916 0.037322612569053545 0.0422828758332906 0.06292229897513774 2.245724076821119e-10 2.4034842543084663e-09 3.2599950939035747e-09 3.837700964219653e-09 4.72525616527104e-07 7.160449125336756e-05 0.0018372216841219327 0.01532351581729623 0.05748810655672666 0.11771201433151225 0.14990856125572127 0.1305757180252591 0.08360448773899122 0.041609557853037854 0.016816961953658227 0.005712395256417381 0.0016754532092963658 0.0004334029352271407 0.00010053094541705428 2.1180745148497475e-05 4.092963836008662e-06 7.304995388168536e-07 1.2096101728415076e-07 1.861740522169748e-08 2.660228137157683e-09 3.5108530272880455e-10 4.234103083578022e-11 4.5749694030791406e-12 4.2743107358730097e-13 3.227256553202965e-14 7.479139712409573e-14 1.0214695020589556e-08 0.00011575486169018114 0.001788658105703084 0.00767116056184408 0.017237920897069204 0.026461264056384177 0.033307693619743124 0.03853017633253614 0.04509328064856143 0.06078995335103728 7.560448209687202e-11 1.989361104815173e-09 2.87812687699411e-09 5.640059326220334e-09 1.9691767315507947e-06 0.00018437241394294278 0.0036184702024731384 0.02466864004391327 0.07790322974600274 0.13696022492247095 0.15232052210794433 0.11769370239787746 0.06781948562549646 0.030775879738780768 0.011472221700257848 0.0036302779275902758 0.0010005701578848162 0.0002450862961554984 5.420269249391139e-05 1.0957833037077192e-05 2.0445845041476476e-06 3.546907129559842e-07 5.750703249884444e-08 8.741704186005293e-09 1.2470220209774278e-09 1.666173578555653e-10 2.0727956681693807e-11 2.372068451576743e-12 2.4417170041766884e-13 2.1697668568177375e-14 1.3334030145951718e-14 1.5903466587637565e-09 2.728731626839634e-05 0.0007420252098597872 0.004911150549366558 0.01361272725313041 0.023394998405024913 0.03120452223967222 0.03736461125207567 0.04431067720039398 0.05765772778653515 2.2534525775743213e-11 1.8920394202517246e-09 5.117854644566071e-09 1.6916154902502016e-07 1.8177647275733143e-05 0.0007428558144005684 0.009274896944504497 0.04563548606208764 0.11068733446262095 0.15582084307850372 0.14341961445151657 0.0942835934593195 0.04731972406664369 0.019075581074289284 0.006422087048807709 0.0018609870447126211 0.0004752317700496356 0.00010894250898411137 2.2749961987183318e-05 4.378729306052368e-06 7.841669058095864e-07 1.3166939595615873e-07 2.0856723932048543e-08 3.131691309386419e-09 4.4722211691182124e-10 6.084466438194548e-11 7.880442312716939e-12 9.672548207829913e-13 1.1133202545989647e-13 1.1772504940188844e-14 3.0300170981842674e-15 2.6162658814862143e-10 6.32085183793033e-06 0.00025003187818694255 0.0023609561150561426 0.008849899075354842 0.018554637815306214 0.027310225688627572 0.03425336648313553 0.04145670961896923 0.05364985062829436 6.368884456342014e-12 1.7885728567129836e-08 2.7589186958304244e-07 8.161475181304954e-06 0.00025452416989965853 0.0041303669110819945 0.02792757496573183 0.08749847938059571 0.1489287291583443 0.15749532345982964 0.1146725098587912 0.06210062848939465 0.026513835394245153 0.009328369467827093 0.002797917173313793 0.0007344839084086585 0.0001722646574278345 3.6694766980004415e-05 7.193435789745933e-06 1.3120621178328553e-06 2.2472538323256122e-07 3.643418525207839e-08 5.631537158286197e-09 8.352867104152371e-10 1.1959560288653184e-10 1.6618172815228668e-11 2.2504515318136354e-12 2.9768540694504274e-13 3.841953498755646e-14 4.805689261995532e-15 8.734084770932379e-16 4.19041983072811e-11 1.3536595273534462e-06 7.507951664307545e-05 0.0009735425646095626 0.004825064942834339 0.012682886870304428 0.021755589256584773 0.02971286483664109 0.037367127183814214 0.04918289718324757 1.5154782431377955e-11 1.0244943061029205e-05 0.00013414217227978505 0.0009433236925259859 0.005164484220092542 0.023613578111024592 0.07806742846463739 0.14312969221311372 0.1612321582184809 0.12340919023375908 0.0694555408897382 0.030535678154281386 0.01098489909114204 0.0033508392694051492 0.0008910537185983764 0.0002111008397866593 4.533410082650448e-05 8.949747997767172e-06 1.6433845823408922e-06 2.835229143875406e-07 4.63706675963619e-08 7.250226601598762e-09 1.0925291045897833e-09 1.5997687847724648e-10 2.2957568156568555e-11 3.2573889176682296e-12 4.610294331255584e-13 6.561671576490825e-14 9.448665974320243e-15 1.3798308913468493e-15 2.4509259288636685e-16 6.077289611599959e-12 2.527334532851488e-07 1.930135213041147e-05 0.0003376567363343597 0.002196059246997033 0.00733902833842646 0.015322886571525522 0.02398790939065748 0.03269635960569495 0.04478718800941426 8.17119172772279e-10 0.0006877894349145836 0.003922785678414605 0.014020744072553014 0.0369350541088559 0.07930170292291443 0.13400716687566402 0.15267424831016527 0.11493237098772094 0.06403680696448193 0.028036480788625178 0.010067006361665668 0.0030668746424681796 0.0008143569237959687 0.00019257978016398028 4.1266078511362777e-05 8.126679335649206e-06 1.4883888854707265e-06 2.5613233634857307e-07 4.1800679043233546e-08 6.525899982781819e-09 9.831524179915313e-10 1.4422956240787182e-10 2.080756893544036e-11 2.9844831311888648e-12 4.308000099323355e-13 6.340744255139094e-14 9.644509195753632e-15 1.5344739386039319e-15 2.5762436049120346e-16 5.049102099597376e-17 7.324167561883233e-13 3.810708240530059e-08 3.987449803713925e-06 9.38594349654816e-05 0.0008032715862673031 0.0034722885628096613 0.00918022197808747 0.01763993291685524 0.02738181231936677 0.040974375413036196 5.825991013721128e-09 0.005170936405979648 0.02426421770365127 0.05215492163073268 0.08405818625757512 0.11192802795786047 0.11822309902060459 0.08843946867286272 0.045467103737938046 0.018742323402794508 0.006538745763689816 0.001953671900121432 0.0005111197902501247 0.0001193807178435514 2.5302141646427666e-05 4.93245856411318e-06 8.945928632079915e-07 1.5247094095809068e-07 2.4639806158336327e-08 3.807593384328199e-09 5.674314229869782e-10 8.227602987559754e-11 1.1722180507009979e-11 1.659573513712892e-12 2.365615095628402e-13 3.4473368160384746e-14 5.2260971948885915e-15 8.397180241318283e-16 1.4561631714016998e-16 2.7655000623073737e-17 6.182500118600002e-18 6.412995231885997e-14 4.080055550120142e-09 5.882142785364999e-07 1.8785267322575812e-05 0.00021494094648201613 0.0012202046750796709 0.004299121219247262 0.010807040188850632 0.022563055026936257 0.03804873175600278 2.7912610190677358e-08 0.02960317849906267 0.05488968594428261 0.06983307831060268 0.07370887708520686 0.06525936479318395 0.045724148659286354 0.02287962191892165 0.0080068454657704 0.0023313945868111037 0.0006693004448158613 0.00017034195028095656 3.8933419970402524e-05 8.102270501219732e-06 1.5540727621984293e-06 2.776701390237799e-07 4.664444532742572e-08 7.4285654527182465e-09 1.1304263459422306e-09 1.6564471738431466e-10 2.3562139409373893e-11 3.282579076428418e-12 4.525182356350591e-13 6.248934845195213e-14 8.77435672673296e-15 1.2756951327568037e-15 1.9625751768749147e-16 3.2743502742787814e-17 6.076142979557711e-18 1.2818943104963937e-18 3.2837284908633394e-19 3.014084287569172e-15 2.2987488357989997e-10 4.625999108705647e-08 2.0464601957329325e-06 3.190993050121803e-05 0.0002509527966517253 0.0011363425099834678 0.004816633533240798 0.012093573131488077 0.036318964425936066 1.7455574421122964e-08 0.00026301185058104294 0.00013955162037653854 0.00010670718308147387 7.289307544107747e-05 4.409988333349597e-05 2.148748777306651e-05 7.837527636170353e-06 2.165853745805664e-06 5.344396973966253e-07 1.3539991356085552e-07 3.0957800570758534e-08 6.446237790691159e-09 1.2362992559984935e-09 2.206412617341141e-10 3.697580765500377e-11 5.865641418686458e-12 8.872857856923662e-13 1.2889358685316806e-13 1.8109027718847486e-14 2.479107424958863e-15 3.335203591173608e-16 4.453177373963388e-17 5.971486944477415e-18 8.160971136079123e-19 1.157170264575579e-19 1.7395548626356033e-20 2.8405312367405435e-21 5.166477528643912e-22 1.069601809512854e-22 2.8558266698976466e-23 4.532193690649962e-19 3.1175929848113725e-14 7.008799475502018e-12 3.5354848062566337e-10 6.36105720603115e-09 5.8712447321593115e-08 2.995615120568949e-07 1.9384051829293784e-06 0.01177719657204878 0.035358006170674944 1.1147314852552303e-08 6.541044703026254e-06 1.0063478521300102e-07 6.213413715724337e-08 3.536785837549588e-08 1.7361433265688614e-08 6.808514390128293e-09 2.0243320197843156e-09 4.7442079421157e-10 1.0341506587455476e-10 2.3739732212486576e-11 4.97569118068721e-12 9.59030263259245e-13 1.7167828765319119e-13 2.880670618071467e-14 4.566974109726421e-15 6.891527961358251e-16 9.963058266556366e-17 1.3889641745223854e-17 1.8797261297164987e-18 2.48683169594973e-19 3.242875487792403e-20 4.2095964717974526e-21 5.509311430810065e-22 7.395909768586872e-23 1.0430825243368156e-23 1.597157403797707e-24 2.751142333843959e-25 5.446656420076934e-26 1.2247324696803352e-26 3.479089756253972e-27 6.240005640476997e-23 3.9377355482371155e-18 9.713450530606746e-16 5.448035462116648e-14 1.096550883484915e-12 1.1284572868529074e-11 6.468379661455217e-11 8.872798499226837e-08 0.011437923367579102 0.03447092886313618 7.112698368509527e-09 6.3993881145804945e-06 3.3476364810782214e-10 2.2829664915239572e-11 1.1662381727593021e-11 4.983861726631956e-12 1.6781234927091349e-12 4.3176841023445043e-13 9.105163322592087e-14 1.9357320774226446e-14 5.0659375360430746e-15 1.6827451406669703e-15 7.81407346614841e-16 4.449598622462311e-16 2.667493850910187e-16 1.5749234701586794e-16 8.976971010617595e-17 4.916335449269093e-17 2.5855602464244068e-17 1.3064692571014751e-17 6.3472598583063076e-18 2.9666735817479103e-18 1.3343131501205474e-18 5.773463710894866e-19 2.4007951022645513e-19 9.573810072738312e-20 3.647413066137736e-20 1.3192720798364795e-20 4.484623003658779e-21 1.4090177075600132e-21 3.9770027499881613e-22 9.56937097596785e-23 4.856613073161433e-22 1.2501889556934113e-19 7.676824223645018e-18 1.6878792305229496e-16 1.887331098817153e-15 5.085237749415643e-13 8.437673728168484e-08 0.01110176333272091 0.033580547325536024 4.54738066296276e-09 1.965346951765542e-05 4.2176599622196845e-09 2.7266848335574105e-10 2.5653751483804555e-10 2.3772903254600675e-10 2.1652101923697907e-10 1.9342414202347532e-10 1.689360790546962e-10 1.43628299479935e-10 1.1825939498985117e-10 9.380986019582236e-11 7.13662635751228e-11 5.1887837402140446e-11 3.597595093092502e-11 2.376231275588414e-11 1.4950493385500517e-11 8.96530996418253e-12 5.12921107003644e-12 2.803003033670065e-12 1.464863185693029e-12 7.328453791126647e-13 3.5120522282018854e-13 1.61252646507524e-13 7.088759170375974e-14 2.9784160224204325e-14 1.1919787672709228e-14 4.517015503593424e-15 1.6050184688732065e-15 5.2610080618911765e-16 1.5468223047919393e-16 3.8725486723999846e-17 7.380071072797371e-18 8.071613018772237e-19 4.88551517494097e-15 8.563965566977005e-14 2.727836551848558e-13 4.006816105077968e-12 2.976600880491465e-07 0.01076800514259917 0.03269027473950464 2.9799499452139092e-09 0.00013276552670244405 6.434994619426778e-06 6.389843857229907e-06 6.389392797037391e-06 6.389110750617914e-06 6.388382638276216e-06 6.383636191926847e-06 6.36049474357773e-06 6.283434674464264e-06 6.094849427056204e-06 5.73441841670125e-06 5.171819762785706e-06 4.430329260634062e-06 3.583939015271969e-06 2.7305094030601972e-06 1.9583639635945295e-06 1.3235828437742663e-06 8.445212004208141e-07 5.098148280782049e-07 2.918135855973641e-07 1.5868810671767512e-07 8.211062580420767e-08 4.046458102567074e-08 1.8993137741867094e-08 8.481487921296164e-09 3.593064556888e-09 1.4362699810238738e-09 5.367189815663938e-10 1.8455499791234794e-10 5.680877903148846e-11 1.4868374968055896e-11 2.959982121059195e-12 3.2752680247374066e-13 1.2723559884879077e-09 1.9713486240354273e-08 5.611661215906702e-08 9.593454009589892e-08 7.340578080650277e-07 0.010436125696133943 0.03180344625083026 1.844118834452346e-09 3.772119380978535e-09 4.053074888292218e-09 4.6661517810959615e-09 1.6004259403789647e-07 9.434826296270992e-06 0.00016064768272760818 0.0012742022072741023 0.005986145565356102 0.019117256239871393 0.045298647636057815 0.08453158537417647 0.1296415520634465 0.1686503188390352 0.19063835350354605 0.19079513767019496 0.17160415242143873 0.1403777740589425 0.10546604377605279 0.07335474682326666 0.047540434759600375 0.02885917946020153 0.016475793186177857 0.008871631231776506 0.0045129156796354436 0.0021690249701971785 0.0009832086350360506 0.00041845620974507606 0.00016579874847458728 6.023955459623411e-05 1.9538850647524908e-05 5.377728920101219e-06 1.1245175237439477e-06 1.2821370122987144e-07 0.0002905418305121104 0.003835050068913649 0.009404440667839103 0.014259048839721743 0.017520637190405905 0.018110327587178374 0.030845928575936665 8.6305038537606e-10 2.594183157824219e-09 3.024926728444276e-09 3.688582303255666e-09 2.330289523293202e-07 1.2692363897437882e-05 0.00020331006942152918 0.0015425977619335676 0.006994991020803064 0.021681453453860924 0.05004814340435883 0.09122744666489849 0.13694003375776462 0.17463787893517654 0.19376760157310852 0.19055431787344668 0.16856031083252124 0.13572202880893872 0.10043967470389938 0.068859171095806 0.044018203876919765 0.026375175029382605 0.014874151823411718 0.007918488521714477 0.003986632964637369 0.0018988720742389464 0.0008544764461488892 0.0003618464113273622 0.0001431032043655853 5.213392735652837e-05 1.707287132695726e-05 4.799509400837772e-06 1.0497270028063567e-06 1.3524683899115742e-07 0.00011400203303024459 0.003303896887547645 0.008821324979741786 0.013939704773861148 0.017765768781682473 0.02037797089332173 0.029177370738701944 2.818111587827216e-10 1.7728893318852439e-09 2.425577099060076e-09 4.807123411108677e-09 6.472393698197323e-07 2.6033993421074558e-05 0.0003518721825431845 0.0023733482730594795 0.009837225454238043 0.02833933774747892 0.061477954360128935 0.10614566445141048 0.15181342146023544 0.18531786482673154 0.19754820440380186 0.18722777029047266 0.16003771211126713 0.12481219076558507 0.08965728408221023 0.05978614284595712 0.037248045615111094 0.02179705900771544 0.012032051075337474 0.00628583754030195 0.0031149905500616137 0.0014658743016404824 0.0006548113569432302 0.0002769786507971711 0.00011032290719119898 4.094069731630407e-05 1.388152765707607e-05 4.145714327894983e-06 1.012075706546611e-06 1.683700041754229e-07 3.890628607133476e-05 0.002208169687699046 0.007318641883430188 0.012495973477589555 0.016426508236919556 0.01982555914184251 0.0265869724974568 6.985591578169562e-11 2.0560305451647684e-09 9.961369386021815e-09 1.72593297851731e-07 5.512922075729881e-06 0.00010100892661983297 0.0009217851604973161 0.004869606771755775 0.016963601052014925 0.04274366416121736 0.08316862971922583 0