# vtk DataFile Version 3.0
vtk output
ASCII
DATASET RECTILINEAR_GRID
DIMENSIONS 41 41 1
X_COORDINATES 41 double
0 1 2 3 4 5 6 7 8 9 10 11 12 13 14 15 16 17 18 19 20 21 22 23 24 25 26 27 28 29 30 31 32 33 34 35 36 37 38 39 40 
Y_COORDINATES 41 double
0 1 2 3 4 5 6 7 8 9 10 11 12 13 14 15 16 17 18 19 20 21 22 23 24 25 26 27 28 29 30 31 32 33 34 35 36 37 38 39 40 
Z_COORDINATES 1 double
0
POINT_DATA 1681
FIELD FieldData 1
Concentracao 1 1681 double
1.0 1.0000000270647704 0.9999997508367423 0.9999995060763289 0.9999993601884826 0.9999992887106639 0.9999992543502598 0.9999992363863088 0.999999225596272 0.999999218403974 0.9999992133486212 0.9999992097159064 0.9999992070846837 0.9999992051734138 0.9999992037845621 0.9999992027767277 0.9999992020475446 0.9999992015237783 0.999999201152617 0.999999200896747 0.9999992007304519 0.9999992006368437 0.9999992006065473 0.9999992006360279 0.9999992007279285 0.9999992008902875 0.9999992011375314 0.9999992014909111 0.9999992019792389 0.9999992026397005 0.9999992035163134 0.9999992046582856 0.999999206112453 0.9999992079109045 0.9999992100512994 0.9999992124723599 0.9999992150319436 0.9999992174994902 0.9999992195834245 0.9999992209847671 0.9999992214790382 0.9999997720327786 1.033830990187733 0.6885456786372114 0.3825949171805943 0.20023496334723595 0.1108876193074773 0.06793707910044855 0.04548218180318768 0.031994613686284486 0.023004223262196085 0.016684989858395075 0.012144190060884507 0.008855061722369925 0.006465972329396186 0.004729924089763345 0.003470112431775071 0.00255863275835041 0.0019039251457229939 0.0014399811657265366 0.0011201620384109906 0.0009122655520963526 0.0007953057128628298 0.0007573847217356646 0.0007943073034203122 0.0009091113099340064 0.0011120601660035252 0.0014211152832882324 0.001862840368511015 0.002473263841748831 0.0032988761182634317 0.004394595254785588 0.005822095381748085 0.007639772315186108 0.00988783844339138 0.01256333432885271 0.015589687787049855 0.0187891765509544 0.02187361058037558 0.02447852700391344 0.026230201437772094 0.026848052637975576 0.999999380106755 0.8241538563182819 0.41060308856810757 0.16646758874443465 0.06135413596697083 0.022541308821244308 0.008939643702251561 0.003968521672952278 0.001932708224946882 0.0009923854184336355 0.0005219775430088746 0.0002771899281538048 0.00014777604805433256 7.897934798900936e-05 4.233845588268961e-05 2.2817950650511706e-05 1.2417930270857708e-05 6.880582870771118e-06 3.937629412122865e-06 2.383549126904998e-06 1.5813472453785278e-06 1.2021447897970938e-06 1.0905148726795126e-06 1.199859569703612e-06 1.5724731367763291e-06 2.3541285101388443e-06 3.847312566981174e-06 6.616689658302051e-06 1.1677265121553685e-05 2.0804592249299048e-05 3.69942601564079e-05 6.509891340273065e-05 0.00011246540445177452 0.00018917233522605583 0.00030691042284842373 0.00047521088217457807 0.0006942789807247608 0.0009460665877429348 0.0011899698641990718 0.001370249698545726 0.001436869227687799 0.9999990127556841 0.5657593446862459 0.21517211138104245 0.06890609224955613 0.0196779092459901 0.005403258945931054 0.0015316837870875419 0.00047346396623999966 0.0001611522107850312 5.8866755896787744e-05 2.236461982731739e-05 8.652119844098749e-06 3.3733596582974675e-06 1.3208464283181955e-06 5.194790589744593e-07 2.0587052747572066e-07 8.276054773564697e-08 3.416866548903284e-08 1.4803312876892078e-08 6.9757350044387486e-09 3.771353280791744e-09 2.5010158485095674e-09 2.161946137417078e-09 2.496977967404215e-09 3.749560103427495e-09 6.876503995209161e-09 1.4388784419633026e-08 3.251919206884671e-08 7.645162044945564e-08 1.8246444239128925e-07 4.347651714520727e-07 1.0213822297757582e-06 2.338520531317446e-06 5.155199274927758e-06 1.0789112468863581e-05 2.1090601458030827e-05 3.781914802453237e-05 6.10375743264652e-05 8.71480081592944e-05 0.00010852676811255305 0.00011685642623763328 0.9999987504529784 0.3499293726643557 0.09952417930256645 0.025772629626753533 0.005911595864691537 0.001272044766356659 0.00027408265011572176 6.254819072069309e-05 1.545427440825568e-05 4.084316265550882e-06 1.1263115480269097e-06 3.1754377017781094e-07 9.048026748246556e-08 2.5940338775260164e-08 7.483121896859914e-09 2.180765098905457e-09 6.477041257476843e-10 1.9930432483897113e-10 6.539148893590368e-11 2.3994896629313186e-11 1.0574800669832388e-11 6.1200124064961035e-12 5.044132663356454e-12 6.1190400049742245e-12 1.0538051472217045e-11 2.370518277575048e-11 6.360945626075142e-11 1.8933641611194343e-10 5.94717646145952e-10 1.909153998191572e-09 6.128893850273162e-09 1.936359415433726e-08 5.9324686666438286e-08 1.7355439599192704e-07 4.759204479911736e-07 1.1965619234914843e-06 2.6876555751469695e-06 5.242542117661025e-06 8.640300993243896e-06 1.177168032189647e-05 1.306419471644805e-05 0.9999985848630549 0.19473765211337152 0.0401527306312656 0.00844677644313464 0.0015773371866103095 0.0002705246408546338 4.539657309842043e-05 7.90482527370994e-06 1.4666106373300286e-06 2.8800030572523197e-07 5.864826682326662e-08 1.2167813254038126e-08 2.5464490301258812e-09 5.358138404183593e-10 1.1347226038567336e-10 2.4322611101855028e-11 5.336757397944415e-12 1.2237060524160734e-12 3.0400251887483885e-13 8.686340006370129e-14 3.1208569056670826e-14 1.5767229189403395e-14 1.2396354954682506e-14 1.5807386709739067e-14 3.125350033418702e-14 8.634567643348647e-14 2.976916800632333e-13 1.1699803339671326e-12 4.927574182684019e-12 2.1379781199002945e-11 9.308893862478223e-11 3.9910359806641337e-10 1.6561693277953221e-09 6.5339677427824865e-09 2.3973421463677446e-08 7.958124025619973e-08 2.3089323670592264e-07 5.616621409505336e-07 1.0993151292975723e-06 1.6677600685306074e-06 1.9211375787980137e-06 0.9999984744458427 0.0775231146763523 0.013342469556136084 0.0024119114159389657 0.00037324832531758024 5.129875000364211e-05 6.734501909051039e-06 9.008100492576513e-07 1.2667051266773498e-07 1.8664822087675528e-08 2.8313580155917232e-09 4.352942933975235e-10 6.726380946773794e-11 1.0427600711635508e-11 1.625938004518811e-12 2.569007709536725e-13 4.1711528307185026e-14 7.136643445388535e-15 1.3439008683511435e-15 2.992672780987515e-16 8.772822893441593e-17 3.871486304519069e-17 2.9055818519104147e-17 3.897319608673286e-17 8.85458006113455e-17 3.0082975338625125e-16 1.3351444005160843e-15 6.947025031689907e-15 3.93782971293856e-14 2.3212495009849877e-13 1.3807030791752605e-12 8.113353982607903e-12 4.623220626898197e-11 2.506344322640876e-10 1.2620861146235727e-09 5.723580327083162e-09 2.2399093469452646e-08 7.146346663057465e-08 1.733582715916345e-07 3.032273627391294e-07 3.654858433368701e-07 0.9999984285701926 0.028536950643216662 0.004308857290801245 0.0006493859098189153 7.985576817694431e-05 8.584698307905748e-06 8.682248096808053e-07 8.844445166944348e-08 9.378519899789974e-09 1.03395772115883e-09 1.1663734037484864e-10 1.3274536661393831e-11 1.5136207533560323e-12 1.7282765563152658e-13 1.9838842341155805e-14 2.3106075684834263e-15 2.776564411017145e-16 3.5456199655756583e-17 5.0632122085669375e-18 8.792295220619053e-19 2.1042763340128741e-19 8.116932566888918e-20 5.818081381549158e-20 8.213784938842705e-20 2.1459166763924353e-19 8.97456701743359e-19 5.135426553508669e-18 3.5460445006415264e-17 2.7146377832097986e-16 2.1849798375869955e-15 1.7880490757933508e-14 1.4544607613297974e-13 1.1541242134653248e-12 8.768783883894095e-12 6.234657670037902e-11 4.0159065195718213e-10 2.246540479749793e-09 1.0131684513350604e-08 3.326632488724467e-08 6.976734097768902e-08 9.059364423866686e-08 0.9999984122126265 0.011185295692159253 0.0014144435659607325 0.0001522904577704747 1.3931218585293514e-05 1.1182674307953959e-06 8.497247509576344e-08 6.489879259887093e-09 5.140904159317469e-10 4.215438581470753e-11 3.522703733221934e-12 2.9604944222650514e-13 2.4870740245799562e-14 2.089491985808126e-15 1.7647355184398528e-16 1.514772741510825e-17 1.3473373764881499e-18 1.2846566929360665e-19 1.3920885058505422e-20 1.886811725130302e-21 3.6904323975387137e-22 1.2454303881092374e-22 8.531433469983837e-23 1.267939110802445e-22 3.8092209592202433e-22 1.9616698493646424e-21 1.448201957378451e-20 1.3291618830478245e-19 1.3778154318138596e-18 1.520447177999934e-17 1.7221637298695188e-16 1.9563092303068166e-15 2.189214264928926e-14 2.3753370528860314e-13 2.4478666875746347e-12 2.3415384313900353e-11 1.9732458707548694e-10 1.4227497633197742e-09 7.202903512190808e-09 2.1400444430753936e-08 2.958127386977046e-08 0.9999984066161781 0.005567459695758876 0.000352485642128165 2.404614794088975e-05 1.4636513288162159e-06 8.367258435153895e-08 4.6276037821292025e-09 2.6020577759035333e-10 1.5217023152106017e-11 9.20940028226796e-13 5.6727586217604284e-14 3.5088461189770708e-15 2.1671853904250355e-16 1.3381765332072392e-17 8.312441205603037e-19 5.260043738770637e-20 3.4663780802883886e-21 2.472101202633898e-22 2.037590603589688e-23 2.1617671584379106e-24 3.4658932200999237e-25 1.0257619127920535e-25 6.721729829908633e-26 1.0508323108398902e-25 3.622926428972223e-25 2.29192171605201e-24 2.179039112818374e-23 2.655928098326039e-22 3.7292668683440934e-21 5.652602914449907e-20 8.894600894528812e-19 1.4195673476111208e-17 2.2618376344319624e-16 3.553363023242262e-15 5.439588863785306e-14 7.932403201386023e-13 1.1031310300763696e-11 1.249978107715808e-10 1.6157082912305476e-09 7.264294189308335e-09 1.3844046917911087e-08 0.9999984044648484 1.8781632357200593e-06 1.2350524309938942e-08 8.663988924492673e-10 5.258120654312601e-11 3.0360308016278967e-12 1.6887347446252746e-13 9.524216039416626e-15 5.571352410495e-16 3.3660942609196435e-17 2.0667359234668193e-18 1.2728919987898036e-19 7.821950365388707e-21 4.802539372648863e-22 2.9649396467741906e-23 1.8640919463809782e-24 1.2201904825597053e-25 8.641662375845901e-27 7.072225850516163e-28 7.448754646559292e-29 1.1853633090844559e-29 3.481725267813168e-30 2.26406940179817e-30 3.511551258197652e-30 1.200959338666585e-29 7.534209742568609e-29 7.10212291621267e-28 8.578894964853233e-27 1.193251676294791e-25 1.7905733970419913e-24 2.787122569408441e-23 4.395408719489194e-22 6.910602033395733e-21 1.0693870957169242e-19 1.6094166461015863e-18 2.3001697399328185e-17 3.150670338191575e-16 3.4130942925745975e-15 5.464459392190982e-14 4.757186783980634e-09 8.567270461812052e-09 0.9999984030894608 1.5999906740472602e-06 1.6866473335311296e-12 2.898107432857948e-14 1.8316536392127545e-15 1.0782982585473469e-16 6.0761818646315145e-18 3.450876640635529e-19 2.0248885312658448e-20 1.2236644441482374e-21 7.499906498993586e-23 4.604134716858991e-24 2.817049932897269e-25 1.720782873337238e-26 1.0563102186575958e-27 6.600137788964824e-29 4.292475675902556e-30 3.0194617465365815e-31 2.4538338198126532e-32 2.5658565595566644e-33 4.053089465450451e-34 1.1815868754607141e-34 7.624670048208712e-35 1.173239367555121e-34 3.980084348291369e-34 2.4762606875077322e-33 2.31407847788315e-32 2.7698619571309227e-31 3.81589377589039e-30 5.667338999975584e-29 8.722856231713595e-28 1.3585777547270925e-26 2.1058710046985216e-25 3.205282241422966e-24 4.7289671338717983e-23 6.601292415631434e-22 8.739710087009324e-21 9.24991006093515e-20 1.3012743301137607e-18 3.0307286677130574e-09 5.469517475610436e-09 0.9999984021360953 1.5999954303870628e-06 1.2800175075512022e-12 2.0435636183275567e-18 8.290702900128189e-20 7.662261610853851e-21 8.027465642435378e-22 8.485235240159728e-23 8.20892983931345e-24 7.028355578748044e-25 5.330680434546821e-26 3.631580767800264e-27 2.2615015138038593e-28 1.309892232304594e-29 7.169154457426392e-31 3.760148891538349e-32 1.9154159338469727e-33 9.628151480586807e-35 4.91863816189825e-36 2.774137462288944e-37 2.2477091108399656e-38 4.395177766908729e-39 2.5844599936023705e-39 3.920611566366308e-39 1.3190377383357792e-38 8.138699730009038e-38 7.539941599545072e-37 8.943588316470885e-36 1.2202828286898607e-34 1.7937679289608955e-33 2.729817470123979e-32 4.19814388820404e-31 6.413440273577152e-30 9.59439698750875e-29 1.3858293865055326e-27 1.881313216020751e-26 2.3972348029809374e-25 2.374944028276539e-24 2.970218611587085e-23 1.9329330224886805e-09 3.4880812598139795e-09 0.999998401478093 5.387274930821194e-06 2.1544200917720993e-11 1.0820886498198341e-13 2.5836878321545688e-14 4.854145687696593e-15 7.326543607587267e-16 9.053867381328864e-17 9.345836520349614e-18 8.231602763300274e-19 6.324245054513711e-20 4.331858884799302e-21 2.7003333028524157e-22 1.560433080415887e-23 8.491711221008172e-25 4.408399109663186e-26 2.205680256497725e-27 1.0717246882967475e-28 5.0844722153420085e-30 2.3631286402486045e-31 1.0775455874303064e-32 4.818715215502014e-34 2.108151251293066e-35 8.97904317558177e-37 3.693004960271573e-38 1.4506391990115835e-39 7.762187394845121e-41 2.9066203643633617e-40 3.904826801778786e-39 5.681754879507406e-38 8.551697421820092e-37 1.2990324083133413e-35 1.956551103008929e-34 2.8782304468243292e-33 4.071721010843474e-32 5.377763928470705e-31 6.59604451043381e-30 6.115318511239375e-29 6.791541148772411e-28 1.2327827655804074e-09 2.2244578121664857e-09 0.9999984010326269 4.000235641779461e-05 4.3484056846044737e-07 1.3519390399639212e-07 3.229721815964169e-08 6.067899113868529e-09 9.158512683697616e-10 1.1317750025139368e-10 1.168272700715094e-11 1.0289884041961175e-12 7.905598545454509e-14 5.415023304529933e-15 3.3755406615233383e-16 1.9506127012638755e-17 1.0615025292655442e-18 5.510698267783413e-20 2.7571994658655025e-21 1.3397037208741678e-22 6.355815816151711e-24 2.9540149019157464e-25 1.34697911603581e-26 6.023603246127741e-28 2.6352799092849544e-29 1.122418636551438e-30 4.6163582586762675e-32 1.8100154647675147e-33 6.63109755046908e-35 2.1974769213936317e-36 6.228536291294411e-38 1.3550292780882578e-39 4.3807412363921e-41 4.0315487698787344e-40 5.993118963169444e-39 8.683352334858502e-38 1.2058442176425974e-36 1.5573540868641835e-35 1.8477626677623617e-34 1.6720033338624428e-33 1.6276204421112823e-32 7.854221776420349e-10 1.4200803529702857e-09 0.9999987324268517 1.2723718107365838 0.5432190470080145 0.1689981243269917 0.04037295039695883 0.007585147402674273 0.0011448559306739116 0.00014147708741699344 1.4603948938605888e-05 1.286283137081096e-06 9.88236375617275e-08 6.769028884879316e-09 4.219580932876189e-10 2.438355092658459e-11 1.3269264572554692e-12 6.888622097193669e-14 3.4466232821369155e-15 1.674689485563349e-16 7.945051729848309e-18 3.6926487738044743e-19 1.6837828186001338e-20 7.529765647485201e-22 3.294213480257919e-23 1.4030713127210546e-24 5.77064378760034e-26 2.2625955551760136e-27 8.289148918714566e-29 2.746937148501633e-30 7.785910392106298e-32 1.6915883091155566e-33 2.1199891952278897e-35 1.6978010861490605e-41 1.846794618015192e-43 2.6413933732543005e-42 3.614768648543595e-41 4.586580695297448e-40 5.367960189137759e-39 4.6493742741033153e-38 5.5444595622443175e-37 5.13824581008734e-10 8.799615759620525e-10 0.9999987885717667 0.9113737497935981 0.28884480664887413 0.07512643500230438 0.015824506144114507 0.0027224614144228396 0.00038401515275778296 4.4960614435179436e-05 4.441038294854582e-06 3.773153514545665e-07 2.815288888094137e-08 1.883697198615948e-09 1.152742543775504e-10 6.566431029679545e-12 3.5346523004893545e-13 1.820118389572787e-14 9.052870628257847e-16 4.38069731425463e-17 2.072838467533398e-18 9.621078141909286e-20 4.386461223948581e-21 1.9636836783754588e-22 8.611944532428996e-24 3.6831871764929988e-25 1.5245104078408591e-26 6.0345404305828665e-28 2.2419975991965566e-29 7.588288994482727e-31 2.2232709310344902e-32 5.114838463775828e-34 7.28260431395758e-36 1.4218815476842271e-38 1.4803606164478626e-44 7.160154995799556e-44 1.353051021260146e-42 2.3988031062564106e-41 4.138776385485263e-40 5.157473348812416e-39 1.3465939017278562e-37 1.8202955585551553e-10 4.204180979169787e-10 0.9999987225665351 0.5530372296565709 0.14002748136608553 0.028705544384352622 0.004978044605311532 0.0007209818012430434 8.74746229048707e-05 8.9631495119523e-06 7.876396741707931e-07 6.049027406816334e-08 4.1440301755858456e-09 2.584049502125817e-10 1.4939154905981636e-11 8.136937835447147e-13 4.231221479211489e-14 2.1228860170449006e-15 1.03598338839416e-16 4.946748002512943e-18 2.320687449854672e-19 1.072390390842341e-20 4.886460848649368e-22 2.194727449761264e-23 9.69895571954027e-25 4.2017236262277457e-26 1.7734671188961533e-27 7.22317050021369e-29 2.7969419849990535e-30 1.0054340642173546e-31 3.225019966379869e-33 8.588102339260604e-35 1.626827830535729e-36 1.3298992454712907e-38 1.0736196802082751e-44 3.57809380024686e-45 9.16658059334983e-44 2.2176354329147802e-42 5.242908879349892e-41 9.32808731581753e-40 3.426624733749364e-38 6.167947677080927e-11 1.5036544806501262e-10 0.9999986033812632 0.29847853527900914 0.05638936879943964 0.009194992073461597 0.0012606719035601216 0.00014552412470075158 1.4179690145174881e-05 1.1808866798271523e-06 8.561613023985106e-08 5.5251522222300236e-09 3.247416421925568e-10 1.7759318803715892e-11 9.204962986332535e-13 4.589273897617768e-14 2.22565946031047e-15 1.058470208604483e-16 4.964161321760562e-18 2.30454117036072e-19 1.0614895419177812e-20 4.857295822433065e-22 2.2090197144421524e-23 9.98144737697321e-25 4.4754962024726295e-26 1.9867095017041293e-27 8.697442116098748e-29 3.731510304919189e-30 1.553043100866043e-31 6.16603731284985e-33 2.270103265214961e-34 7.372563884569371e-36 1.921852316028612e-37 3.2803506401356985e-39 2.466103607080025e-41 2.590875794155947e-46 8.200221333318315e-45 2.6286003001123087e-43 8.173579911796991e-42 1.8826564218006807e-40 8.654294228280685e-39 1.787926932945201e-11 4.609709560215416e-11 0.9999985125560678 0.15163106171932694 0.01977091286505303 0.002491169146315348 0.0002672369524582564 2.391535966144363e-05 1.7966737518885853e-06 1.1525203089833819e-07 6.467279185208377e-09 3.263368399257275e-10 1.5231611051595948e-11 6.749966655749794e-13 2.903442682136989e-14 1.2331660886118872e-15 5.233597099628446e-17 2.2358705754300273e-18 9.652360698828175e-20 4.216932412509703e-21 1.8644873251069049e-22 8.338513410787685e-24 3.769519018615683e-25 1.721459708626003e-26 7.937735862560676e-28 3.693183181406825e-29 1.7312329854090768e-30 8.150626257270838e-32 3.828134324056817e-33 1.7706318973247667e-34 7.877439370191613e-36 3.23398556934754e-37 1.1402950616640101e-38 3.0619288057507772e-40 5.706200833212275e-42 8.053536735225088e-44 1.600306254721179e-45 3.506311545274407e-44 1.3886153580516241e-42 3.946500043384632e-41 2.1331881538822975e-39 4.893924354758441e-12 1.3051648658152267e-11 0.9999984470795972 0.06083606003189288 0.005415956887542469 0.0005508244945451471 4.7681084579330755e-05 3.361348237033385e-06 1.9456273584742707e-07 9.466944028510841e-09 3.9867766141429716e-10 1.499569785305789e-11 5.197306779868619e-13 1.708263554057809e-14 5.456774294697549e-16 1.7286888416810633e-17 5.5176372034591835e-19 1.797266144365106e-20 6.04377927901157e-22 2.1237571411816878e-23 7.906137938672893e-25 3.163303885535304e-26 1.3761064450278947e-27 6.537041758307881e-29 3.372346814462601e-30 1.8650234482513032e-31 1.0876220945296863e-32 6.5771449149395726e-34 4.053762763178314e-35 2.4946889663487258e-36 1.4894215015545062e-37 8.247046177898793e-39 3.934222905287532e-40 1.4346694152285116e-41 3.6722445383856e-43 7.361868788801647e-45 2.0559071863098647e-46 4.8841263460645965e-45 2.442534254442906e-43 8.451750420820881e-42 5.306134512209974e-40 1.3344492893272111e-12 3.672638312062193e-12 0.9999984133316432 0.01661597053216853 0.0013357730489523083 0.00011524570979873323 8.101230687276602e-06 4.483931853320835e-07 1.994935472604441e-08 7.349278469971777e-10 2.3191792000332297e-11 6.489982793037708e-13 1.6654232164782187e-14 4.0406800327937815e-16 9.516737549222872e-18 2.224652953291204e-19 5.2585776117069765e-21 1.2788272055511981e-22 3.2610564308734006e-24 8.932167638134085e-26 2.7121130025265077e-27 9.469066105937424e-29 3.9252583699859905e-30 1.9568047454990408e-31 1.1567792167574535e-32 7.844346835587905e-34 5.869799628362809e-35 4.682496890847732e-36 3.867251556078863e-37 3.2155733512871115e-38 2.603997570293517e-39 1.957965753804323e-40 1.2673149162404646e-41 6.255571320249553e-43 2.1586068559601775e-44 5.797787434455679e-46 2.1492824437539348e-47 6.68696534978122e-46 4.2900406649935064e-44 1.845107395341118e-42 1.3700098908930852e-40 3.840955271814274e-13 1.094553267942325e-12 0.9999984040887614 0.004849851994217323 0.0003339036418101681 2.3330082676765247e-05 1.2621904926286249e-06 5.321776148067303e-08 1.7855844706672024e-09 4.928199250063197e-11 1.1582328070075817e-12 2.403049266885575e-14 4.556464214412146e-16 8.15144050264713e-18 1.4145231659812593e-19 2.439033185485363e-21 4.26899204480313e-23 7.751269102037479e-25 1.4990321341759563e-26 3.2012054062119627e-28 7.930279921632231e-30 2.416947118880319e-31 9.548841630356042e-33 4.995456704829807e-34 3.383598684084669e-35 2.813209763807361e-36 2.70111894168645e-37 2.8428886356280366e-38 3.147482451821033e-39 3.53859174946113e-40 3.8912817920413443e-41 3.9799614231422836e-42 3.5046667345955853e-43 2.3509229837917536e-44 1.1003836223841318e-45 3.9974020845689333e-47 1.99746921762889e-48 8.332356722801753e-47 7.129399962149579e-45 4.02445781069339e-43 3.7788218048536046e-41 1.2208249939851138e-13 3.684817168386498e-13 0.9999984014639456 0.0015683688528982977 8.7908842778149e-05 4.165288717167212e-06 1.6123176363313911e-07 4.919151717800683e-09 1.211674672454172e-10 2.464685828086243e-12 4.273770714920621e-14 6.53635123146389e-16 9.126327669255817e-18 1.201274662595314e-19 1.5339794770582451e-21 1.9496610192436324e-23 2.526121200965465e-25 3.4248111820280834e-27 5.024939784820774e-29 8.371603542639939e-31 1.693138699503425e-32 4.507302453174049e-34 1.697661929093664e-35 9.319083765941573e-37 7.229475971429983e-38 7.365335739628276e-39 9.071117105769295e-40 1.2594233976772442e-40 1.8696981304246204e-41 2.84420185827171e-42 4.2527165299208714e-43 5.929300555408824e-44 7.126634873431069e-45 6.529752514255328e-46 4.1781714251913995e-47 2.0789521678567044e-48 1.427481280755462e-49 8.266264656344733e-48 9.874355296549551e-46 8.122427120286938e-44 1.0843605286091283e-41 4.661114603009414e-14 1.4822708385381545e-13 0.9999984007004766 0.0006803900605862858 1.7457809080402206e-05 4.979791649522602e-07 1.228136740528598e-08 2.5888153004676174e-10 4.538361437886936e-12 6.690008688953951e-14 8.468974441481389e-16 9.48802155738472e-18 9.716455240387323e-20 9.388006921910413e-22 8.810891868155838e-24 8.251759317197545e-26 7.9172269606961775e-28 8.02329489813387e-30 8.946818856454282e-32 1.1654762469912405e-33 1.9292625339592714e-35 4.495238902083083e-37 1.6155846134747543e-38 9.300280066754343e-40 8.248368418801905e-41 1.0273836450059566e-41 1.6194896514244143e-42 2.961478374698519e-43 5.889630149335336e-44 1.2121295113630172e-44 2.4661380348037452e-45 4.695286173001663e-46 7.726804796177698e-47 9.718951658304715e-48 8.569956614868392e-49 5.912199765019948e-50 5.700991849798842e-51 4.70863670019363e-49 8.518567173904881e-47 1.0275303705925718e-44 3.056458785957216e-42 1.8876992211162242e-14 7.915705289705573e-14 0.9999984004350189 1.6267952584382813e-06 4.861741675848708e-10 1.431548306442005e-11 3.549700994593564e-13 7.631596421215557e-15 1.3602865959647562e-16 2.0350371093703502e-18 2.609547286234116e-20 2.9571320254825213e-22 3.060001593793333e-24 2.98528888083153e-26 2.827322210025888e-28 2.6710058951613768e-30 2.584413157088478e-32 2.640538119018469e-34 2.968100608761534e-36 3.8968255590859984e-38 6.501319967839956e-40 1.5277021195773095e-41 5.549516334206031e-43 3.23961924079991e-44 2.914359246269245e-45 3.6658741611756116e-46 5.806402976071592e-47 1.0639681222867313e-47 2.1194447013757037e-48 4.371084029790154e-49 8.91640031597228e-50 1.7022246234153271e-50 2.808056129499787e-51 3.537437792088045e-52 3.118934890815058e-53 2.1462843505515972e-54 2.058780208216033e-55 1.6856302446499496e-53 3.034373480821045e-51 3.529031779582014e-49 1.3052956275356875e-46 1.3337643927495251e-14 5.336123545022822e-14 0.9999984002786391 1.5999877095842928e-06 1.2926949699040757e-12 3.846683098060302e-16 9.982181264936662e-18 2.2082131052678174e-19 4.028774840393825e-21 6.139119753620778e-23 7.993484650632938e-25 9.180290822820633e-27 9.652465892863713e-29 1.0191778294302252e-30 2.0270891431652134e-32 1.8125924490910515e-33 2.6440554315106473e-34 3.999571473030661e-35 6.036413181808849e-36 9.073920741064258e-37 1.3588030606976173e-37 2.0269999609477515e-38 3.0110104213009316e-39 4.4501194073976636e-40 6.53485808727838e-41 9.515156808758363e-42 1.3696397882132474e-42 1.9406048012959205e-43 2.689730499297997e-44 3.613919358098598e-45 4.643985610993119e-46 5.590071850009255e-47 6.094340209750406e-48 5.669885187458173e-49 3.982447704850685e-50 1.476725775769696e-51 1.1740356915827672e-57 5.9480459626566534e-58 1.0445766182798692e-55 1.196159110101256e-53 3.9053245461060893e-51 9.210897980243462e-15 3.691506907725276e-14 0.9999984001786151 1.5999958785504073e-06 1.2800040197480545e-12 1.1014311567572828e-18 1.6757326247868546e-20 3.53040360859688e-21 6.846731311229954e-22 1.239791604745099e-22 2.1331831266659775e-23 3.5351653396457745e-24 5.699457472756744e-25 9.004815642054138e-26 1.4016727738380035e-26 2.1578669266271464e-27 3.294643079142233e-28 4.998547182007801e-29 7.545649695230396e-30 1.1342772827722436e-30 1.6985621233398756e-31 2.5338379139089115e-32 3.763894719555637e-33 5.5628453064338815e-34 8.168862499102483e-35 1.1894370965632801e-35 1.712111304871034e-36 2.425843775320378e-37 3.3622854907048884e-38 4.517564469704752e-39 5.805195364801003e-40 6.987847577762763e-41 7.618206952671676e-42 7.087618783097484e-43 4.978243628396293e-44 1.8459751336168816e-45 1.4583985909386153e-51 1.0760523265106982e-57 3.546520557787623e-60 3.8275836076841765e-58 1.117124289527852e-55 6.366623870310584e-15 2.551449271512887e-14 0.9999984001157969 4.916539869628884e-06 1.7253417837895746e-11 8.44099814344586e-14 2.060338809329436e-14 4.40524314953925e-15 8.557192864416012e-16 1.54976421620908e-16 2.6665593421387626e-17 4.4190965948242455e-18 7.124550693358979e-19 1.1256385099023228e-19 1.7521484358001483e-20 2.6974229507441644e-21 4.118441375458797e-22 6.248394391189016e-23 9.432382318432695e-24 1.4178951164667867e-24 2.1232758578987527e-25 3.167407411542376e-26 4.7050330320708886e-27 6.953801690093625e-28 1.0211440494335212e-28 1.4868494879496991e-29 2.1402160904317502e-30 3.0324144339139928e-31 4.203009805222709e-32 5.647162152604684e-33 7.256760852928682e-34 8.735131611724678e-35 9.523110708861851e-36 8.859851192388847e-37 6.223034318595805e-38 2.3075536979777053e-39 1.8230645702349577e-45 1.345087514716511e-51 9.049959726002475e-58 1.281122346203132e-62 3.2002434242070973e-60 4.400645798815588e-15 1.7634785871482785e-14 0.9999984000836258 3.258213630552313e-05 3.5965956147468666e-07 1.0546207864398987e-07 2.5754960963428332e-08 5.5067153008546185e-09 1.0696813087436707e-09 1.9372648082817367e-10 3.333303353399347e-11 5.524045850096332e-12 8.905974185638215e-13 1.4070937988684301e-13 2.1902573389763104e-14 3.3718902604999087e-15 5.148223581747903e-16 7.81075595245886e-17 1.1790878090129085e-17 1.7724295318207663e-18 2.654186324875036e-19 3.9593967931502937e-20 5.881497076309991e-21 8.69255844472649e-22 1.2764753622593724e-22 1.8586282663004457e-23 2.675366326378777e-24 3.7906552135521014e-25 5.253953493324901e-26 7.059211019986387e-27 9.071284568486765e-28 1.0919317465961734e-28 1.1904328805795119e-29 1.1075224090527146e-30 7.779080542223418e-32 2.8845482871658084e-33 2.2789137988964773e-39 1.681419659994599e-45 1.1312842184059718e-51 6.688161936314777e-58 4.200791077926219e-64 3.0391442134419302e-15 1.2199332568019549e-14 0.9999987554392513 1.1654375329993565 0.4493437398381532 0.13183120295872586 0.0321946235531041 0.0068835970208356275 0.0013371420003223387 0.00024216555271849597 4.1667594904756987e-05 6.9052762580069514e-06 1.1132825061718304e-06 1.7589243273009526e-07 2.7379114194448103e-08 4.215002286897192e-09 6.4354943123872e-10 9.76377365598112e-11 1.4739097869750763e-11 2.215612712665668e-12 3.317847294799547e-13 4.949417918210749e-14 7.352128616572243e-15 1.0866081049733754e-15 1.595650843182938e-16 2.323368371674983e-17 3.344328232479884e-18 4.738490591337508e-19 6.567681105241263e-20 8.82433701600265e-21 1.1339523170797596e-21 1.3649651468313895e-22 1.4880962921256163e-23 1.3844544501539183e-24 9.724211879653822e-26 3.605818899015695e-27 2.8487470159032284e-33 2.1018509702357318e-39 1.4141554737054022e-45 8.360494503678766e-52 4.0481794527760224e-58 2.145856194160658e-15 8.231037593270839e-15 0.9999987785359203 0.7802390900002955 0.2192736433165515 0.05429754338012268 0.011940944244753043 0.0024001063764036577 0.00044822318123988067 7.910920039014525e-05 1.3376208648273406e-05 2.190220150590145e-06 3.501511545403909e-07 5.499413559586624e-08 8.524334930235068e-09 1.30842456662901e-09 1.993572760923219e-10 3.020328403159259e-11 4.555358216604266e-12 6.844524363557754e-13 1.0248535095133378e-13 1.5292344772200628e-14 2.273077560876543e-15 3.363218848814434e-16 4.947067258402638e-17 7.22061805788643e-18 1.0429035871772947e-18 1.4847115224246153e-19 2.0715182598236156e-20 2.8090924202598067e-21 3.6566759906238904e-22 4.482884277168088e-23 5.018504986709123e-24 4.86041380789286e-25 3.653294355196786e-26 1.5872740725576112e-27 1.3007741133926286e-33 9.95853884094571e-40 7.07771226444363e-46 1.1418865330891488e-51 7.41766939467303e-54 8.953721567519512e-16 4.458551449518397e-15 0.9999986946995258 0.45148996337966996 0.10174815172750085 0.020550515037143918 0.0039348105455452595 0.0007149098166944353 0.00012438788891871191 2.087720839205583e-05 3.40598837861465e-06 5.436119157601545e-07 8.532658137704387e-08 1.322565525412872e-08 2.030724851607363e-09 3.0960528998459235e-10 4.694989679821962e-11 7.090190529270275e-12 1.067187163236003e-12 1.60178767596916e-13 2.397972611793268e-14 3.580542438643042e-15 5.330716878900683e-16 7.908442364960043e-17 1.1679766256254288e-17 1.7146642958514735e-18 2.49684306278143e-19 3.595146871499626e-20 5.095588901159907e-21 7.0621429978556e-22 9.475751766856001e-23 1.2120971418480196e-23 1.4418565647747106e-24 1.528456004284385