# vtk DataFile Version 3.0
vtk output
ASCII
DATASET RECTILINEAR_GRID
DIMENSIONS 41 41 1
X_COORDINATES 41 double
0 1 2 3 4 5 6 7 8 9 10 11 12 13 14 15 16 17 18 19 20 21 22 23 24 25 26 27 28 29 30 31 32 33 34 35 36 37 38 39 40 
Y_COORDINATES 41 double
0 1 2 3 4 5 6 7 8 9 10 11 12 13 14 15 16 17 18 19 20 21 22 23 24 25 26 27 28 29 30 31 32 33 34 35 36 37 38 39 40 
Z_COORDINATES 1 double
0
POINT_DATA 1681
FIELD FieldData 1
Concentracao 1 1681 double
0.0 4.61647237440349e-23 6.583347035860297e-17 1.0777130327981815e-16 1.4943035869056602e-16 1.8982921949965544e-16 2.283287269266122e-16 2.6511974448725383e-16 3.0052929257428664e-16 3.3556432006447876e-16 3.694634700379332e-16 4.064665978900689e-16 3.675665434149235e-16 2.564467094551147e-16 1.981770057516139e-16 1.5707719478727031e-16 1.2962321145073274e-16 1.1097350747876745e-16 9.95765481731668e-17 9.910361498834193e-17 2.247156155297083e-15 4.742728924001875e-12 4.717948231162557e-12 4.713884682173865e-12 4.716064727165395e-12 4.718682991274474e-12 4.721859760346793e-12 4.72593357022044e-12 4.724153131092838e-12 4.729217977605791e-12 4.399094907983536e-12 3.977316812423605e-12 2.7502942101556417e-12 2.102624991296842e-12 1.6944446363375372e-12 2.3472137115079586e-12 1.8089269130214805e-11 1.548027014078391e-10 7.555841512903e-10 2.1907629280502323e-09 3.351229122144968e-09 4.197099201086117e-23 5.770595058849544e-17 8.229190378172408e-11 1.3471423687107597e-10 1.867880977935662e-10 2.372867120962692e-10 2.8541113698699215e-10 3.313999436684171e-10 3.756619050693398e-10 4.194557356449185e-10 4.6182970701088654e-10 5.080836468345291e-10 4.594585455089717e-10 3.205586419132471e-10 2.4772145536652313e-10 1.9634665056128267e-10 1.6202914388265955e-10 1.3871699462893724e-10 1.2447078479300668e-10 1.2387961775652315e-10 2.8089474394064e-09 5.928415870745138e-06 5.897440006901427e-06 5.892360554172531e-06 5.89508562502147e-06 5.8983584577760835e-06 5.902329422293252e-06 5.907421686085636e-06 5.905196134413321e-06 5.911527200650941e-06 5.498873032824711e-06 4.971649992846319e-06 3.4378705129887622e-06 2.628283341746044e-06 2.1180574829881717e-06 2.934019486517226e-06 2.2611604502037637e-05 0.00019350353156250027 0.0009444809446970263 0.0027384558508257184 0.004189039753910332 5.557564380557343e-17 8.2293742116348e-11 0.00014253401430649887 7.457377390549338e-05 6.72699312787794e-05 6.358786324145161e-05 6.0248251795273464e-05 5.751710080232673e-05 5.536814149570873e-05 5.558656456153291e-05 5.342661788508299e-05 0.00010521863526785614 3.109488281423385e-09 1.994464032015739e-09 1.2535376276488255e-09 8.849459950558598e-10 6.611599088356052e-10 5.223090927817137e-10 4.4181249934430305e-10 4.008531232130405e-10 2.1861493579068858e-08 4.5623367561456776e-05 4.240767741093291e-06 4.261851485827965e-06 6.698024727272693e-06 8.083998439160671e-06 9.159316204571717e-06 1.0064872314185478e-05 1.1261904847261974e-05 1.1881651727890066e-05 2.65498011618943e-05 4.990783938659702e-06 4.3780195021333485e-06 3.6623908381433683e-06 3.3551287769453545e-06 6.7909194393904334e-06 6.14923675989514e-05 0.00047071531947360737 0.0020691263007316905 0.005502231794625548 0.007846275688964314 1.3622852542883725e-16 1.3945586442644267e-10 8.07958564112521e-05 4.281276501031691e-07 1.8400701408778225e-07 1.644287702127393e-07 1.47624356334977e-07 1.3362967827192546e-07 1.2316059561872704e-07 1.1917274106517457e-07 1.211786058092306e-07 5.466454433586743e-06 3.2703787633761963e-09 2.341306486996929e-09 1.7650095617614846e-09 1.346927609440546e-09 1.05945272321831e-09 8.57169757284138e-10 7.197368528900287e-10 6.450229146388841e-10 4.550987293470992e-08 3.1491069924886865e-05 3.3192327738360816e-08 1.0569082834038098e-09 2.092716664563562e-09 2.9439942669580107e-09 3.6509112109350536e-09 4.301772171590593e-09 5.0912695859015045e-09 6.743275668401831e-09 4.29993287604321e-06 5.062545981709764e-06 4.633292534015595e-06 4.275091210425427e-06 4.682979782311686e-06 1.5805483650411636e-05 0.00014344473662100996 0.0009189514397132479 0.003509328301749235 0.008380636672937574 0.011032581750811376 2.2442140925631765e-16 1.9607005437668018e-10 7.30516523215293e-05 1.997031827923522e-07 5.157499455934917e-10 2.1154450433773768e-10 1.7939110814766687e-10 1.5307197422612402e-10 1.3276259646248256e-10 1.215438175371341e-10 1.2211505325697912e-09 5.257634307210235e-06 3.470893425857203e-09 2.5818755283931267e-09 2.044236493737848e-09 1.6484809542326877e-09 1.344197784192617e-09 1.1103601667566935e-09 9.325442966382334e-10 8.054422413070434e-10 8.17128763979565e-08 3.160749829697994e-05 3.164853735906886e-08 1.4802166601357174e-11 3.750429652568168e-13 5.684227926146092e-13 7.477817972828722e-13 9.163334144283086e-13 1.1761623301756182e-12 6.801876455899095e-10 4.288533584955341e-06 5.411749161580496e-06 5.190275045475358e-06 5.403598754677319e-06 8.877084075183749e-06 4.533277841495388e-05 0.0003314988544680967 0.0016725326914503453 0.0053905837419240925 0.011393523680097195 0.013772528960140022 3.128691916342731e-16 2.5093801417915126e-10 6.90760341481823e-05 1.785584051747575e-07 2.2960273412430338e-10 3.763863748608948e-13 1.443824257403674e-13 1.1488235961418763e-13 9.21562631461981e-14 1.9043269876284587e-13 1.0927814481416987e-09 5.259032367545086e-06 3.6897461674099702e-09 2.7620326789050504e-09 2.243195778625158e-09 1.8584614547781166e-09 1.5512460513178916e-09 1.2992698985679756e-09 1.0907212849662262e-09 9.209799813914369e-10 1.3322203230792436e-07 3.084404970613667e-05 3.05972989670662e-08 1.4198714879786762e-11 4.214100637460482e-15 8.002626600087606e-17 1.0612698333235163e-16 1.3337532322624412e-16 4.898710405055073e-14 6.352261502544175e-10 4.28857265118125e-06 8.686405999602532e-06 9.500172575540955e-06 1.3452211412944042e-05 3.312509290381841e-05 0.00015095487931308796 0.0007610282862833816 0.002909369853377329 0.007790950400431362 0.014482925406890394 0.016064299414495154 3.9899879309682095e-16 3.0322077453922525e-10 6.545192934456334e-05 1.6031895584404294e-07 1.947487242664081e-10 1.5666646077230978e-13 1.8083851165874805e-16 6.384348519465507e-17 5.4016075378766256e-17 1.1007728096588467e-13 1.075482384577829e-09 5.260801183945519e-06 3.920198763246919e-09 2.9165741154038037e-09 2.3978895753377827e-09 2.0186687527833416e-09 1.7093049764037313e-09 1.4448047883643941e-09 1.212674369355098e-09 1.0102767861633274e-09 2.0452841921613396e-07 3.049272716337522e-05 2.9544199208534847e-08 1.356907940445066e-11 3.951135927177378e-15 8.379334558874387e-19 1.2091091443326069e-20 2.1059708650327228e-18 4.188854985110217e-14 5.843035757848053e-10 4.288253715582946e-06 4.160529102559215e-05 4.959492938965804e-05 7.526599387199575e-05 0.0001617991420427916 0.0004922860345684811 0.0016631027759936785 0.004802563986052864 0.010692771972025629 0.017522926560730793 0.01789119965884976 4.820484345603353e-16 3.531830800962133e-10 6.248601356529294e-05 1.4512330035043495e-07 1.661790774572697e-10 1.246747223834981e-13 6.925287246241416e-17 5.954488379238326e-20 7.125021301782025e-18 1.059934367740092e-13 1.055458588822393e-09 5.262466468758456e-06 4.152461129944224e-09 3.059576927830695e-09 2.5309255828544396e-09 2.1517061566618647e-09 1.8393463058971707e-09 1.5645967574134538e-09 1.3134388504073315e-09 1.0859130605014807e-09 2.986134608892815e-07 3.0296127955392154e-05 2.87007361084924e-08 1.2929107815675516e-11 3.690014859310933e-15 7.559887994133695e-19 2.6840501812650753e-22 1.6216347688264882e-18 3.477106158529996e-14 5.263739155646716e-10 4.2848939323154425e-06 0.0002616875080873451 0.0002991543284618019 0.00039883684844023724 0.0006604237420329304 0.001391016676891993 0.00331900282331804 0.007432696658028373 0.013960235192594372 0.020351051482466728 0.01923496652831499 5.6205298407588e-16 4.0127033329554885e-10 6.015256156595815e-05 1.3375622187459784e-07 1.4413319677262242e-10 1.000134885091552e-13 5.890516446031539e-17 8.018611711919444e-18 1.4158827407983415e-17 1.014811357327605e-13 1.0325808832872118e-09 5.264117818380914e-06 4.379570124661081e-09 3.2044996846839512e-09 2.658715847814648e-09 2.2748606407895403e-09 1.9577217595632595e-09 1.6734806164600729e-09 1.405792484119117e-09 1.157854898269495e-09 4.133908863194385e-07 3.0373001596788316e-05 2.830624494740182e-08 1.2456780615835164e-11 3.451901941146941e-15 3.3188016438761397e-18 2.405559214417466e-18 3.366760443433066e-18 2.7674254072883804e-14 4.606412046093301e-10 4.265940749310054e-06 0.001243115832323608 0.001339814832138454 0.0015595497676507497 0.002072266518577005 0.0032844960041419906 0.005933563442572899 0.01072034871824315 0.01736746083040247 0.022813988343471675 0.020090135854902696 6.401879831993093e-16 4.488755869300792e-10 6.040986295108471e-05 1.2946931267899646e-07 1.3200414134897022e-10 2.1115112777472906e-13 1.23778750246655e-13 1.1919164483125906e-13 1.141200945335148e-13 2.0490426378741653e-13 1.00651810752035e-09 5.265778241187218e-06 4.595714313698514e-09 3.367924992920044e-09 2.7989703830963793e-09 2.404623186688571e-09 2.079518819158187e-09 1.7852142441478181e-09 1.5022571838083625e-09 1.2355441914474165e-09 5.342513161639162e-07 3.1302662777115795e-05 2.880380788573265e-08 1.24440949941235e-11 5.990327639431088e-14 5.346170595223308e-14 5.016480377416325e-14 4.6747930027665904e-14 6.387222558981863e-14 3.8442800218036193e-10 4.1860221777992075e-06 0.0043999492765395085 0.004476036152759015 0.00461505361132309 0.005138268483498096 0.006547648592462885 0.009517636942151094 0.014440220493108011 0.020667846227230054 0.024808796674062286 0.02047516960226217 7.163340946245268e-16 4.949368859124697e-10 5.807032298311516e-05 1.3170775513229304e-07 1.3677343836303367e-09 1.2277801660798804e-09 1.2083616858944704e-09 1.1858818253523492e-09 1.1601979124035738e-09 1.1309143358918785e-09 2.072064725856662e-09 5.268550314535508e-06 4.797787004221868e-09 3.5735583387370737e-09 2.976874140049281e-09 2.5614668236198744e-09 2.221387491398388e-09 1.9144036069687736e-09 1.6168017134306557e-09 1.3330704493890899e-09 6.390970341011082e-07 3.14034205957119e-05 3.071802340066565e-08 7.873424483019937e-10 7.549350088579034e-10 7.329554847648479e-10 7.092161355392135e-10 6.836775847758098e-10 6.560854514908737e-10 9.157546502021958e-10 3.892855512275727e-06 0.01211217390251622 0.011611365724684092 0.010817407241450142 0.010449783607427886 0.011283959363537736 0.013869378503188704 0.018305290340098663 0.023663886260883844 0.026303283763668837 0.020436886415391202 7.980385835666197e-16 5.470230746526298e-10 0.00011611670824965292 6.1328938411791875e-06 5.902673313288232e-06 5.904247937028194e-06 5.906235432668586e-06 5.908106628824869e-06 5.909962194360286e-06 5.911827962292075e-06 5.914697019882468e-06 1.1183422299110794e-05 5.277298688566377e-09 4.014869810609418e-09 3.3139173089939216e-09 2.8236592812903516e-09 2.4340280346242852e-09 2.0944004322631047e-09 1.7758458826384223e-09 1.471022295215762e-09 6.141125468427588e-07 5.267709288091802e-05 5.153360056950814e-06 5.11143105883517e-06 5.1117947521970355e-06 5.112166870938893e-06 5.112466725224015e-06 5.112727201453748e-06 5.112942854272928e-06 5.113253243106236e-06 7.628995925468456e-06 0.022621534261569227 0.02138527429002314 0.018735672384272276 0.017065172194779845 0.01683800369201705 0.01852020227558401 0.022020911624814694 0.026236998941828304 0.027330385597616837 0.020046539411301297 7.944075227141893e-16 4.946694652645102e-10 3.4191111244963654e-09 3.599696856183136e-09 3.824799795582705e-09 4.070504036760884e-09 4.329231054748597e-09 4.589989534009818e-09 4.844961942360694e-09 5.087623706765849e-09 5.314475839486062e-09 5.805681748025323e-09 1.1514400062838833e-08 1.0646564800598422e-08 8.546122234809266e-09 6.488387943738586e-09 4.855249592811298e-09 3.643105620446438e-09 2.733654039738673e-09 2.119706709648402e-09 5.350065061347038e-07 6.304637005787016e-07 8.240237852537659e-07 1.160887203028456e-06 1.7297993217530444e-06 2.7054473198778922e-06 4.428124291351321e-06 7.604040665875803e-06 1.3824880924184165e-05 2.7116220884760463e-05 5.9057534063339614e-05 0.00015356806517769574 0.008876033055680866 0.015348185037507393 0.01891731381440667 0.020659425845363434 0.022466592262358667 0.025237620967262585 0.028324899142564114 0.027962527008517136 0.019389077821463454 6.483293269978595e-16 3.4512432567315237e-10 2.190147142010743e-09 2.573322991835273e-09 2.8398510070901085e-09 3.039974120825195e-09 3.212006999723952e-09 3.3714501900192404e-09 3.5332260795096516e-09 3.7158182283317234e-09 3.9457231372212876e-09 4.428533665128471e-09 1.0908043561675887e-08 1.8840164132880604e-08 2.1767880909320327e-08 2.0434268357155716e-08 1.7036476622738087e-08 1.318473956240089e-08 9.802977890108296e-09 6.961753859735864e-09 3.0019336118445414e-07 5.334132421587732e-07 7.419514913542798e-07 1.0814300135392613e-06 1.641426203607125e-06 2.597514779847389e-06 4.2837690801718274e-06 7.391182128613101e-06 1.3471448798508404e-05 2.6456654347025798e-05 5.752180187308233e-05 0.00015937240494094844 0.002792078831877951 0.009398909761510274 0.016279755503444487 0.021337592945796683 0.02475932591164793 0.027601132959337603 0.029890594847708982 0.028281568076676786 0.01855011141629709 4.9897068300904e-16 2.667058161447576e-10 1.374271774327703e-09 1.938070021106997e-09 2.2463239610689295e-09 2.4663087636584476e-09 2.637616415170211e-09 2.7851575296578693e-09 2.927080199648125e-09 3.0830615111904178e-09 3.281191792233232e-09 3.653724297787458e-09 8.856801362722273e-09 2.1929779723146707e-08 3.641735476732381e-08 4.541477560783939e-08 4.729494451815089e-08 4.392396400713882e-08 3.799321897420276e-08 3.196476528211003e-08 1.9483321171956265e-07 4.015018798702092e-07 6.537359603079543e-07 1.010156890404067e-06 1.5866874854086445e-06 2.5593922026957023e-06 4.263021010268352e-06 7.37280239621862e-06 1.338023991276368e-05 2.5979893159134525e-05 5.605697255023252e-05 0.00014647430123353847 0.0012928402876961399 0.0055099906461886505 0.012487369936062368 0.01967926638116929 0.02521809540336739 0.028928268618689915 0.030924005673421826 0.028359292541958684 0.017605158234472305 3.8078072167828833e-16 2.1139403800657844e-10 9.688337299611706e-10 1.477626541794333e-09 1.8100526116589775e-09 2.0417623558646813e-09 2.2187280802615524e-09 2.3658346313069413e-09 2.5021630850692536e-09 2.6459854032005306e-09 2.8200831541303566e-09 3.1104720827660048e-09 6.786499458217373e-09 2.06660713369015e-08 4.552611789424886e-08 7.335129212364106e-08 9.522304491878809e-08 1.0729874892036926e-07 1.109548230506896e-07 1.1060954898260036e-07 2.0414688530698736e-07 3.7915000056311836e-07 6.38826184495245e-07 1.035659661746326e-06 1.6764473808416927e-06 2.753684316321e-06 4.616159808247611e-06 7.937999138706283e-06 1.4136396579290826e-05 2.6595769060994743e-05 5.488876514398832e-05 0.00013434485736951417 0.000733740560645893 0.0033839656524382792 0.009217124797544012 0.017052389500841696 0.024307384097289338 0.029287102349392358 0.03146074614229613 0.028252259711029893 0.016613777307532555 3.0161160709039373e-16 1.7444668121730442e-10 7.229239304783237e-10 1.1612545548813292e-09 1.4748936763369342e-09 1.7031216724274182e-09 1.8774742120777376e-09 2.021025219837472e-09 2.15180154531987e-09 2.286484789655247e-09 2.4435572373210783e-09 2.6789560486645918e-09 5.123133587255358e-09 1.7285533538719377e-08 4.7468401932966336e-08 9.530418393001371e-08 1.510935649353548e-07 2.0403159560559928e-07 2.4949175116663975e-07 2.9116372390067896e-07 3.9146078699164257e-07 5.85933793593717e-07 9.126656124467391e-07 1.4488441267015419e-06 2.3367237322620035e-06 3.820934906369027e-06 6.312294938563841e-06 1.0515388542995077e-05 1.7747337131563312e-05 3.0915249276422005e-05 5.8012483210555376e-05 0.00012734571915917815 0.0004926922324909062 0.002210064415830903 0.006807047741056344 0.014367962455381106 0.022659451853635684 0.02891964373056579 0.0315851510525134 0.028004948654680506 0.015618325107820416 2.5086243190773896e-16 1.493480490031471e-10 5.70483752305689e-10 9.38776509198197e-10 1.217487169262235e-09 1.4255710269796349e-09 1.5859665966805104e-09 1.7180607741504216e-09 1.8381942004618597e-09 1.961554977826263e-09 2.1043183286743205e-09 2.303333751196439e-09 3.876708755472443e-09 1.3423767382904225e-08 4.41253940642015e-08 1.0744049758880314e-07 2.0411737533915743e-07 3.2570865205988285e-07 4.653306282700019e-07 6.284858632003877e-07 8.697706940894878e-07 1.2645993349785635e-06 1.9204349801588887e-06 3.010314973293993e-06 4.813732118941197e-06 7.753688049575428e-06 1.2420585974560837e-05 1.9579795235260956e-05 3.0265803384448023e-05 4.644550319237853e-05 7.390368270725276e-05 0.00013478516191961127 0.0003822198774376807 0.0015490432756299385 0.005130065123591317 0.0120392555571137 0.020785846619490594 0.02812044924552105 0.03141243103978541 0.02765386098147103 0.014645980297231506 2.206041251314469e-16 1.3401013051735654e-10 4.821701708904357e-10 7.876954815792334e-10 1.021841768553446e-09 1.1959795888337474e-09 1.3302988321624216e-09 1.4413253904724893e-09 1.5431257101333222e-09 1.6495079335534344e-09 1.775909822192158e-09 1.9515239688329966e-09 2.9321098429787364e-09 1.0018909803143193e-08 3.820023566422694e-08 1.1115063419229428e-07 2.4970616344685004e-07 4.6554431771408124e-07 7.701622225993497e-07 1.1974112634876293e-06 1.8513437848533475e-06 2.927518884309911e-06 4.7440926717828366e-06 7.796204342029466e-06 1.281152367676686e-05 2.0751821417369783e-05 3.266934715715981e-05 4.9315095238054705e-05 7.058617583471032e-05 9.568646384279377e-05 0.00012622024048646112 0.00017770904667141363 0.00035511774462718566 0.0011802541894188978 0.004006892104475382 0.01019607173805671 0.01902081687647656 0.02715691067583452 0.03106508160685261 0.02722954396056088 0.013712041272419056 2.1457749488434464e-16 1.3337576569425482e-10 4.3724959000595906e-10 7.056245690675132e-10 8.821311979412653e-10 1.0093705643731337e-09 1.107825513894983e-09 1.1913467203074358e-09 1.2709125651861608e-09 1.356903403853865e-09 1.4647709501247516e-09 1.617093836103057e-09 2.2889603029712175e-09 7.148466094831211e-09 3.21680562355439e-08 1.1087380992356577e-07 2.9160564992317263e-07 6.292033071942237e-07 1.1982438868345407e-06 2.148314857158975e-06 3.834197016649154e-06 6.967043808201596e-06 1.2767534369844545e-05 2.2914078390640646e-05 3.956759008330256e-05 6.537115232523067e-05 0.00010263660909733649 0.0001516236092971344 0.00020827929154145015 0.0002609381011533401 0.00029795310434896474 0.0003237520007962908 0.0004287879136297167 0.0010262495799293711 0.0033063256729500127 0.008858290002995393 0.017560072974475753 0.02623906937774968 0.030654435494428797 0.026756852148325967 0.012823405682988384 4.728991992951906e-15 3.3401134448584792e-09 2.6031155998231594e-08 5.390208911763701e-08 9.666511450581753e-08 1.5749440772030333e-07 2.4170153523895674e-07 3.528163860291341e-07 4.884148796042639e-07 6.31357314966688e-07 7.556090846426571e-07 7.282394216404296e-07 6.359659188857174e-07 3.582382508210522e-07 2.2744773002248752e-07 2.2225147208766954e-07 4.0221217928188316e-07 8.772951928323169e-07 1.8579857945535404e-06 3.840572646523873e-06 8.459890758386337e-06 2.0844304709176042e-05 4.7073252084305376e-05 9.228409907451251e-05 0.0001644135900631107 0.00027212206929049367 0.000421759629999579 0.0006120035081070633 0.0008234603882413975 0.0010209097211576772 0.0010539552963918103 0.0009990759553304212 0.0008028125629044686 0.0011293791608710537 0.0029926134070394463 0.008010798459897266 0.016512670369233966 0.025515032511973457 0.030269572307179422 0.026254777124432385 0.011981600289960613 9.646647098493504e-12 7.336190337544432e-06 5.6458473440826216e-05 3.845681702996433e-05 3.8430977241412415e-05 3.739561178889091e-05 3.68908184383288e-05 3.658884843081757e-05 3.6622298012748765e-05 3.767609897769679e-05 3.7715982466926526e-05 6.294961601504775e-05 7.470918527261865e-07 6.328813463408702e-07 4.7247259888035887e-07 4.2851418534365165e-07 6.203048591202143e-07 1.2906305771415962e-06 2.95133672313778e-06 6.994930404531587e-06 2.0883120292327304e-05 2.3733042837831326e-05 1.7906050351205157e-05 2.065333523380754e-05 2.2927226221853413e-05 2.486720643123051e-05 2.6771912408644777e-05 2.8780561492669843e-05 3.159770343527756e-05 3.333934396349565e-05 5.816489980434281e-05 0.0011467482681508472 0.0011049657612763346 0.0013568331796342304 0.0029637997823101113 0.007620167851364995 0.0159176771113691 0.025074598456767228 0.029971332243761015 0.025736585598065267 0.011185129903093886 1.1291375874351979e-11 7.300356057929953e-06 5.381892300697808e-06 4.066652953925517e-08 3.856553023692244e-08 3.7175856637709866e-08 3.5818279710442025e-08 3.473367454522218e-08 3.4199625730507834e-08 3.4737181751724426e-08 3.695369320362538e-08 6.128215192393749e-06 9.764766333005825e-07 8.790149497510409e-07 7.704393890715105e-07 7.323424841090398e-07 9.868035111926315e-07 1.982317074531825e-06 4.804962946003141e-06 1.2847679589895683e-05 4.724757735187033e-05 1.8294002204102218e-05 1.2115178158707015e-08 7.92530491246791e-09 9.434575717361876e-09 1.0703273238846813e-08 1.1905674475984314e-08 1.3221791228922892e-08 1.4975481378012115e-08 1.755291269433234e-08 5.400386491587745e-06 0.001420128976386576 0.0013977705961199418 0.0016718821642513558 0.0031839612860592235 0.007624425383446934 0.015772946987431084 0.024953130033619576 0.02979142702047136 0.02521120349266955 0.010431217730554873 1.1597318187451388e-11 7.2945464402291395e-06 5.409596049827518e-06 1.344102589711226e-09 1.8085866268451316e-11 1.72887946080726e-11 1.6485607113789708e-11 1.5679645144376776e-11 1.508143077253968e-11 1.5037024715557237e-11 9.380732849553725e-10 6.0779891534909445e-06 1.375679012638871e-06 1.280963785820075e-06 1.191148224751889e-06 1.1948292831233576e-06 1.5868421428550433e-06 3.13500150051656e-06 7.927542733585045e-06 2.3102504429950043e-05 9.271450586500358e-05 2.1193555986623845e-05 8.15361619935587e-09 3.1773445333165644e-12 1.9975242221530432e-12 2.371039881264105e-12 2.7213864974896017e-12 3.0922061511948975e-12 3.5959783611139184e-12 4.3148663123778873e-10 5.3686888860557285e-06 0.0018271704881784717 0.0018162213985331796 0.002114731120700275 0.003619224000403435 0.007985451199303743 0.01603880067464976 0.025143481260960682 0.029736453624763758 0.0246857265266942 0.00971700846088077 1.1661911705908184e-11 7.297936481530725e-06 8.50184062790503e-06 2.662740480677005e-09 4.780896749053898e-13 5.1453147692505166e-15 4.810727000529516e-15 4.48456189062055e-15 4.1879761710146295e-15 7.155246284694788e-14 8.9933264706095e-10 6.0784221888818855e-06 2.04985161191351e-06 1.944120307551241e-06 1.871456773897427e-06 1.9400571916373903e-06 2.579219545632928e-06 5.0458240642450535e-06 1.3069573243419904e-05 3.9957302416230516e-05 0.00016530286385323939 2.3603912508126363e-05 9.74314482175855e-09 2.068588040768486e-12 5.933544687161503e-16 3.5881818881305707e-16 4.2107101228041265e-16 4.841388499137054e-16 1.7930727335141296e-14 4.1006231191162596e-10 5.3610794033168845e-06 0.0023954310069080604 0.002389483176510207 0.0027241367098266482 0.004278487068992736 0.0086598380785499 0.016661463301536655 0.02560638811279711 0.02979635111347564 0.02416921737372707 0.009040353336453543 1.1679971433617278e-11 7.301868033610541e-06 1.0261069736318298e-05 3.746054844865514e-09 7.249901950560625e-13 1.0225084132099348e-16 1.023003492016388e-18 9.207564610296871e-19 3.9827722438330346e-18 6.381395087427179e-14 8.731969767226748e-10 6.0788654675042384e-06 3.2059621362618693e-06 3.0762728465027654e-06 3.018865968098998e-06 3.191874797163609e-06 4.238777740503112e-06 8.168844608599992e-06 2.122989994723036e-05 6.611237738363552e-05 0.0002737722384691686 2.5671981365049752e-05 1.1089310919392132e-08 2.46440775262926e-12 3.7404774129928324e-16 8.571474307689538e-20 4.970830239271675e-20 5.267986516373113e-19 1.602210571335572e-14 3.916269231208703e-10 5.3502984030794064e-06 0.0031721017916519685 0.0031678569651934644 0.003542929821841567 0.005175907428959466 0.009617511959359516 0.017573380132832203 0.02628432045040548 0.029954508620250064 0.023676227351861888 0.008400076559934525 1.168998346652615e-11 7.306580002544423e-06 1.1625996268910996e-05 4.645777955103791e-09 9.538329594069854e-13 1.3568085364409487e-16 1.548635689501967e-20 3.3100395103487607e-22 2.877554581257039e-18 5.988597882461885e-14 8.449687379243977e-10 6.079222775972876e-06 5.247135974073434e-06 5.072789177480981e-06 5.027997241644052e-06 5.356536211198e-06 7.0313339559339745e-06 1.314814247827366e-05 3.351786871591979e-05 0.00010395225724739692 0.00042457711626493386 2.771237453854795e-05 1.2374393833376645e-08 2.8387525621159007e-12 4.406939028164944e-16 5.218803065356657e-20 2.974325132991441e-23 4.165232930395306e-19 1.466725606653089e-14 3.7221147797238984e-10 5.335057196533598e-06 0.0042238122719563025 0.004216901966484513 0.00462864439994511 0.006338236222433045 0.01082981976471366 0.018701390841360056 0.027111741909272836 0.030197178653151094 0.02322997701758049 0.007796355439095418 1.1700244781883164e-11 7.312602411086514e-06 1.2775491607640347e-05 5.474280682721944e-09 1.1689367944208144e-12 1.7059448991637856e-16 2.740196867505781e-18 2.1125824717242684e-18 4.1573198468689824e-18 5.5814882305304325e-14 8.146010591195774e-10 6.079533391788206e-06 9.00980841842874e-06 8.75129585446217e-06 8.69507279848142e-06 9.22183343441798e-06 1.1766185018284431e-05 2.084403197296165e-05 5.0768937118628566e-05 0.00015380882849630117 0.0006164555940897177 2.9880920306286462e-05 1.3791454915523318e-08 3.2386234263156164e-12 5.089934299372993e-16 5.789291838114967e-19 4.603419778885902e-19 7.692359519485229e-19 1.3312481062274092e-14 3.517437786426672e-10 5.313433392093721e-06 0.005648923315324219 0.0056313410283973875 0.006058099777927417 0.007801165288175986 0.012268795476356757 0.01996807201248317 0.028022752496334045 0.030519628267244543 0.02286407754934482 0.0072303047774954655 1.1698983426264075e-11 7.309460023793163e-06 1.429627476932728e-05 6.4800134927288766e-09 1.5016868263080242e-12 6.339055464201269e-14 5.424689257731542e-14 4.50717676667127e-14 3.591529029034874e-14 7.845694179984786e-14 7.817930098405158e-10 6.079791062254917e-06 1.6378492596264504e-05 1.5947229742301807e-05 1.5779622420806182e-05 1.6450364545039822e-05 1.997814890155501e-05 3.247448202321631e-05 7.301409559015578e-05 0.00021167932449731443 0.0008299007627293807 3.29358834653037e-05 1.5693973162693664e-08 3.786954607352822e-12 1.9623646633517983e-14 1.756504790164503e-14 1.6091096940890437e-14 1.461628835023256e-14 2.5075457559106763e-14 3.29895956175535e-10 5.282108687587223e-06 0.0076063087220140865 0.007559059268471402 0.00794259936758365 0.009614494837722776 0.013910080493651182 0.021298555251040244 0.02895646861180969 0.030927593174640885 0.022622379791692102 0.006703967492417264 1.1709173017520272e-11 7.316765886114061e-06 1.508364470947849e-05 8.59356493384895e-09 8.75598222641153e-10 8.180038406653203e-10 7.527655666494404e-10 6.785477756739925e-10 5.943201100415489e-10 4.966093404604513e-10 1.1210947636957752e-09 6.080177504387558e-06 3.211625279329614e-05 3.1309118806534375e-05 3.064123541344248e-05 3.102528222280357e-05 3.508935597987799e-05 5.0425179884865656e-05 9.97445029255604e-05 0.0002659190491832141 0.0010294691247669985 3.493833578401322e-05 1.8524703702344543e-08 4.686752848761496e-10 4.456812353272364e-10 4.2583625531047926e-10 4.0493315058261204e-10 3.828926450846493e-10 3.59357260643939e-10 6.391111928110993e-10 5.234674603422039e-06 0.010398615735884327 0.010264912456623929 0.010466839277810017 0.011864887123028503 0.01575309815841816 0.022636627157712256 0.0298616900796828 0.03143321790181878 0.022556755083908513 0.0062197208335210315 1.1047822795328973e-11 6.8053249029850474e-06 3.387003365847675e-05 5.5087172278322855e-06 5.494139785660321e-06 5.494195842629278e-06 5.493819033997502e-06 5.489702487636297e-06 5.466251476835645e-06 5.366605743587776e-06 4.998019756071755e-06 9.324884920718585e-06 6.99082985301499e-05 6.803188885427501e-05 6.612007460886462e-05 6.42309909713792e-05 6.653896293989268e-05 8.164209549470157e-05 0.00013345130796358116 0.00030533118097130266 0.0010625875521307773 6.178252243380337e-05 5.8117552197091075e-06 5.778154276667154e-06 5.770414210006142e-06 5.7594323199320085e-06 5.743878851786191e-06 5.7217700690463706e-06 5.689671840212143e-06 5.64089925226675e-06 1.0704856517429421e-05 0.014839689866021166 0.014405818169262811 0.014004913085662991 0.014753379839642825 0.017877943258732747 0.023980928923505725 0.030707067197140073 0.03204703915705995 0.022722499840793275 0.00577998868577412 1.0047392145136059e-11 6.15211042982463e-06 6.174588706017476e-06 6.259282027858399e-06 6.671962753252189e-06 1.0589126097451543e-05 5.0542479327277175e-05 0.00032062888992005545 0.0015362655498436736 0.005481650347159992 0.015221905464261854 0.028804433417797336 0.00018149127986043714 0.00018821941194224425 0.0001727381948100165 0.00015771200410358676 0.00014772413742919035 0.0001523597727878806 0.00019276354848161837 0.0003372360867244424 0.001009507758432586 0.0011604865281079984 0.0014381894195779664 0.0018522391674158382 0.0024312714316392166 0.0032242806324951374 0.004300700061953501 0.005763432745941364 0.007779325922187115 0.010667339572093898 0.015288173170767028 0.02124312643049516 0.02063955899610589 0.019235110498642013 0.01874194241618908 0.02056073170272984 0.025457193603881777 0.031508442846278725 0.03277207324144962 0.023171622044566617 0.0053866382089 7.2563213899000725e-12 4.2530188190950315e-06 5.41489424098651e-06 5.725415222741695e-06 6.388996437457609e-06 1.1550528517417405e-05 6.0236363798189955e-05 0.0003665883649422748 0.0016558431009245555 0.005575679576385381 0.014584118248309427 0.02717765856183456 0.011253426325521978 0.0035094589284686436 0.0016035690050903203 0.0008957048767555368 0.0005912516458876542 0.0004490899634038724 0.00040419524940275 0.0004660172625655515 0.0008315890147818361 0.001133055532525314 0.0014312661359814967 0.001859196144342471 0.0024472063758714632 0.0032475605756661892 0.004328840451484498 0.0057903676643770085 0.007787352656194046 0.010597978449545