# vtk DataFile Version 3.0
vtk output
ASCII
DATASET RECTILINEAR_GRID
DIMENSIONS 41 41 1
X_COORDINATES 41 double
0 1 2 3 4 5 6 7 8 9 10 11 12 13 14 15 16 17 18 19 20 21 22 23 24 25 26 27 28 29 30 31 32 33 34 35 36 37 38 39 40 
Y_COORDINATES 41 double
0 1 2 3 4 5 6 7 8 9 10 11 12 13 14 15 16 17 18 19 20 21 22 23 24 25 26 27 28 29 30 31 32 33 34 35 36 37 38 39 40 
Z_COORDINATES 1 double
0
POINT_DATA 1681
FIELD FieldData 1
Concentracao 1 1681 double
1.0 1.0000000245895957 0.9999997279243281 0.9999994488244489 0.9999993153780727 0.9999992556319967 0.9999992274335063 0.9999992136791466 0.9999992068801077 0.9999992047043738 0.999999202206508 0.9999992568746456 0.9999992809399859 0.9999993652097892 0.999999293733839 0.9999992651942041 0.9999992435540339 0.9999992292219105 0.9999992175302095 0.9999992007316141 0.999999200001271 0.9999992000012532 0.9999992000012771 0.9999992000012776 0.99999920000128 0.99999920000128 0.9999992000059136 0.99999920001774 0.9999992003280888 0.9999992001354345 0.9999992147999104 0.9999992220105524 0.9999992493982649 0.9999992269228553 0.9999992191111442 0.9999992137306117 0.9999992108171629 0.9999992090738145 0.9999992080741529 0.9999992075529652 0.9999992073909154 0.9999997706934218 1.0307370190374943 0.6599051380718616 0.31103000995132707 0.14422190623675002 0.06953925965229282 0.034291110296864 0.01709815287109463 0.008599370856761317 0.0058796718371450065 0.0027573371574682037 0.07109257676638746 0.10117426583493044 0.20651160496282456 0.11716659250148759 0.08149202028465999 0.05444178613355444 0.03652662215719403 0.021911979401735497 0.0009137189211364211 7.892394063974234e-07 7.708607820994008e-07 7.963163139850967e-07 7.992035038584146e-07 7.998870849783989e-07 7.999775958982023e-07 6.5919461501394185e-06 2.137550890615472e-05 0.00040931174013618404 0.00016849333557812264 0.018499103007815165 0.027512412463952658 0.061747080522429394 0.03365279591916997 0.023888152588685437 0.017162478342994617 0.013520664413823371 0.01134147716018399 0.010091899116679178 0.009440414110800432 0.009237851623410015 0.9999993612258735 0.7724049202925656 1.188585139014678e-05 3.4554891176853534e-06 1.449385588292898e-06 6.606996078145557e-07 3.086581167864129e-07 1.4691278886691865e-07 7.112303133977558e-08 4.8836109578022635e-08 2.200390878545484e-08 1.0735661492812805e-06 0.052337921715233444 0.05368501664316398 0.023280144207837746 0.010917625703996358 0.005248292712171912 0.002479474889737904 0.0009233479745409373 1.9816723735342704e-05 5.833731832935488e-13 6.166852941011585e-13 6.370517083219658e-13 6.49568862950928e-13 1.022813489440567e-12 1.2346345296866122e-12 1.1526911338048701e-11 4.107335609145746e-11 8.798866661533064e-10 3.8201365842929194e-10 7.786973412060219e-08 0.005802952050086199 0.005105799968133896 0.002063736955497859 0.0009880208547906337 0.0005403645581945732 0.00034168841111802156 0.00024493163993568906 0.0001960485227804359 0.00017263814269296288 0.00016564386896868204 0.9999989395518001 0.43837818761637676 1.1832346439238465e-06 4.6410642123155774e-11 1.438540715803387e-11 6.231654939890143e-12 2.7686979884841112e-12 1.2541240041956045e-12 5.834454223039103e-13 3.8752091165319563e-13 1.8373975863081242e-13 8.454045375250184e-12 0.018154270306028245 0.01673122034399419 0.005004876333462026 0.0017931636437824303 0.0006460721616047114 0.00022874347178057457 6.071129029486545e-05 6.937208320766037e-07 4.651831278362076e-19 4.933474248013657e-19 5.096403145772566e-19 6.656509733450063e-19 1.3614027657828589e-18 1.9492610512212396e-18 2.0276707306847726e-17 7.888773748402688e-17 1.8198643716908188e-15 9.035511255086266e-16 1.8893472633702062e-13 0.0006953162550668923 0.0005350301535695359 0.0001414294410253793 5.196846612148589e-05 2.2348640118439954e-05 1.1802261735907097e-05 7.402080454159828e-06 5.416759250682712e-06 4.530955880238043e-06 4.275107028244668e-06 0.9999986789208675 0.22852990889864985 1.888931943469031e-07 1.8751265826757695e-12 1.5912581953378626e-16 5.841387284685396e-17 2.463065222337581e-17 1.0555362809225709e-17 4.638000460369957e-18 2.9223483230836648e-18 1.297082257796534e-18 5.3471456014552044e-17 0.004865153332522396 0.004191901642030337 0.0010713403238011778 0.0003071829198047833 8.919534426445152e-05 2.522901789545852e-05 5.2383503442538e-06 4.416508200866529e-08 2.0130941675244476e-20 5.558041379696788e-25 6.040143089543001e-25 8.54121610684126e-25 2.045339578110702e-24 3.2458235305818783e-24 3.644160925919063e-23 1.5005984875062083e-22 3.640191714640605e-21 1.865827728581693e-21 3.888907930269865e-19 6.14546152165287e-05 4.387973837783606e-05 9.835189108844657e-06 2.9252676431736204e-06 1.0587213100323333e-06 4.856280665400905e-07 2.745164902463579e-07 1.871811010799706e-07 1.5034592266181265e-07 1.399933392643322e-07 0.999998540887797 0.11585870793941423 3.04145571424682e-08 2.8686740483664276e-13 2.690392594240513e-18 5.710356455451134e-22 2.174670961324934e-22 8.729416973208124e-23 3.560191736513181e-23 2.052290725686189e-23 8.092439243749469e-24 2.7341932634795913e-22 0.0010866887386970414 0.000902537719059537 0.00020806675035529114 5.188235103280103e-05 1.2857354539737916e-05 3.095984294061345e-06 5.463073215956076e-07 3.921889482908767e-09 1.567270249410886e-21 8.905517148328466e-31 9.409433522015548e-31 1.3832466017398886e-30 3.485290820659641e-30 5.8174744332319645e-30 6.770249940378894e-29 2.851909735840401e-28 6.974224364794421e-27 3.527375146969913e-27 6.909016027155879e-25 4.480170692276073e-06 3.08508517427709e-06 6.273205623170798e-07 1.6548942385906032e-07 5.321230079577384e-08 2.2144663940208255e-08 1.1627769556763972e-08 7.539688057590951e-09 5.883210559553868e-09 5.42664020918513e-09 0.999998470678394 0.05820559495637039 4.993775187946247e-09 4.4794765732726956e-14 3.984997005295361e-19 3.523519492053724e-24 1.9448726423921263e-27 7.1210481408009e-28 2.6486896234983965e-28 1.360248189068188e-28 4.591296607135536e-29 1.2414264796404242e-27 0.00021011523163119646 0.00017051730704527115 3.689738139452751e-05 8.390480733085932e-06 1.8723189439184057e-06 4.053230780307426e-07 6.47411351398301e-08 4.2682657018474747e-10 1.606156481674589e-22 1.7039414056890887e-36 1.7772113874124056e-36 2.6246203522539614e-36 6.70324158044842e-36 1.1296224533217742e-35 1.3154017933763673e-34 5.477705164530003e-34 1.3047065127122575e-32 6.289928566564828e-33 1.141587736662015e-30 2.82671158121301e-07 1.9094590355301046e-07 3.6926077068637367e-08 9.106307097437268e-09 2.7370104478048678e-09 1.0747501997281342e-09 5.398779044478942e-10 3.3957713319698877e-10 2.6037530923775113e-10 2.3880024221666524e-10 0.9999984354104343 0.029190751207508667 1.5163769666292295e-09 1.2944593961469407e-14 1.0894855923739957e-19 9.010190608097341e-25 7.367155289475301e-30 5.861816796634834e-33 1.934754554458204e-33 8.662600049129011e-34 2.4442491556784818e-34 5.1528932171781985e-33 3.602611638744464e-05 2.8835230099457264e-05 6.004694054607115e-06 1.2921915547319182e-06 2.709030188482068e-07 5.522172800868127e-08 8.381309046828304e-09 5.3209988524792884e-11 1.9571399318843838e-23 3.707288490931289e-42 3.85881210395717e-42 5.6875879258726373e-42 1.4409781857338707e-41 2.385100496381834e-41 2.697828770746196e-40 1.0778779281499022e-39 2.42747829084392e-38 1.0867962701997307e-38 1.7914665589052415e-36 1.5786936951620817e-08 1.059128108122979e-08 2.0106653064888127e-09 4.837002827963108e-10 1.4169084706548149e-10 5.440361427790115e-11 2.6857032700514394e-11 1.669210982987743e-11 1.2710825155109369e-11 1.1631658735577184e-11 0.9999984177792486 0.014689903068791832 1.5611845075764892e-09 1.2806905288813995e-14 1.0180631720581815e-19 7.823645998231587e-25 1.7709808927603371e-28 2.9368375535746e-29 4.512646376646352e-30 6.193051380197729e-31 7.405177096179778e-32 7.120538081657272e-33 5.535629455168552e-06 4.4024596792955e-06 9.007218524188885e-07 1.8905987244508737e-07 3.8611633347958105e-08 7.707504903393905e-09 1.157155460797749e-09 7.340838703484046e-12 2.7129129899611462e-24 1.5949741669434828e-43 3.538448740473167e-44 6.647983515182959e-45 1.1571243607160056e-45 2.307608055767532e-46 6.1429820441251054e-46 2.2007404493143742e-45 4.55553651841688e-44 1.8460981954515594e-44 2.7042483603719848e-42 7.789556547034473e-10 5.256547865164657e-10 1.0119570153637329e-10 2.4746232810256266e-11 7.349640622178018e-12 2.8506108569804554e-12 1.4168347843622653e-12 8.844505173492126e-13 6.751161111962926e-13 6.182983941298978e-13 0.9999984101919 0.008978558218744194 2.7144515626296863e-08 2.1539527686662014e-13 1.6292832062345271e-18 1.1187369673213242e-21 2.141072877583182e-22 3.6710745468294747e-23 5.640853310649216e-24 7.741368501921278e-25 9.256525838656024e-26 8.90068929569385e-27 7.596924770302613e-07 6.051495494394897e-07 1.2426205446874527e-07 2.61882416019481e-08 5.382881315965884e-09 1.0890228247371355e-09 1.6762005844719951e-10 1.1021656627079475e-12 4.206075180142777e-25 1.993612104485369e-37 4.4218922393672407e-38 8.292560184759529e-39 1.4032264812039608e-39 2.197711446061066e-40 3.2251329344821945e-41 4.446515157760844e-42 5.731527351597563e-43 6.819857252649663e-44 7.361271972965692e-45 3.276291021952462e-11 2.272092493803743e-11 4.66648884478253e-12 1.2210680424587897e-12 3.8353139214928665e-13 1.5488751977935548e-13 7.915676943800028e-14 5.030777813199198e-14 3.8788467790787496e-14 3.563936176950848e-14 0.9999984055835449 0.00512335158687278 1.0062993468433795e-08 1.0715174143533034e-13 6.197590726640916e-15 1.3841771974918052e-15 2.6763670357133814e-16 4.5888850052451764e-17 7.05112365742589e-18 9.6767781166044e-19 1.1570724139647043e-19 1.1125911730465079e-20 9.083764424229887e-08 7.349613984566554e-08 1.560725172022172e-08 3.414960425638648e-09 7.2824845568368e-10 1.5372923750680181e-10 2.504995017459242e-11 1.7760036885690616e-13 7.353783926173717e-26 2.492023731392926e-31 5.527385238614213e-32 1.036573740730282e-32 1.7540392202701336e-33 2.747148429115476e-34 4.031428793432219e-35 5.558160214925917e-36 7.1644275200495e-37 8.524838833796293e-38 9.196697960127772e-39 1.0454326104852946e-12 7.962763052033513e-13 1.933332161354855e-13 5.884206192818875e-14 2.0398193148667868e-14 8.81059394412992e-15 4.707344287690776e-15 3.0772906657347216e-15 2.4100262967661003e-15 2.225520551836143e-15 0.999998460386775 0.07294754712214505 2.200679557702702e-06 2.892196662784005e-08 7.74634219041038e-09 1.7302412226325202e-09 3.345493683067281e-10 5.7361598856690734e-11 8.813976981481694e-12 1.2096057515877816e-12 1.44634881192377e-13 1.3907450388267894e-14 8.734518545265018e-09 7.471999363420467e-09 1.7692287183413645e-09 4.1683717507497065e-10 9.473480477545296e-11 2.135474433685664e-11 3.743440415223262e-12 2.998639953303883e-14 6.211277216282127e-25 3.1150417829448623e-25 6.909259243213772e-26 1.2957224632129598e-26 2.1925573894684006e-27 3.4339477548788358e-28 5.0393025910874913e-29 6.947721333516388e-30 8.955559100307273e-31 1.0656074843277035e-31 1.1495897368140419e-32 1.3569199373451773e-14 1.682277647125408e-14 7.509287827848598e-15 2.8484382694201025e-15 1.1330005373792256e-15 5.327982650005219e-16 3.0077789690160696e-16 2.0350094560975194e-16 1.6242251721095614e-16 1.5089720258511517e-16 0.9999985161524297 0.1353582722398062 0.1041661926020784 0.03613216781634227 0.009683056315439227 0.0021628278171229058 0.0004181912553168476 7.17026898780053e-05 1.1017563833037733e-05 1.5120179833939838e-06 1.807946492609868e-07 1.7384387449252663e-08 1.1577825598387297e-09 6.791648739157699e-10 1.8308691361363203e-10 4.7842176430893667e-11 1.1778577017897703e-11 2.853602523572273e-12 5.488814768509961e-13 4.6281657364384086e-15 9.435763220922958e-19 3.893817004093686e-19 8.636620662120995e-20 1.6196604704601145e-20 2.7407081786888382e-21 4.29245094045361e-22 6.299150008255226e-23 8.684678970034497e-24 1.1194480597299545e-24 1.3320126324439163e-25 1.4369901537128773e-26 1.039708142934267e-20 3.869451875409584e-16 2.9153075986360707e-16 1.4718778638344875e-16 6.769460203194056e-17 3.4888882836459045e-17 2.087638300440221e-17 1.4646553792690267e-17 1.1925216720159058e-17 1.1149716989680355e-17 0.9999986452266171 0.30869609261169445 0.1062086403234631 0.033825874787912685 0.008485496618262174 0.0018218125700547724 0.00034344461387993114 5.7989787757915936e-05 8.846173472545559e-06 1.215624282090562e-06 1.4764489974942582e-07 1.5008423900349056e-08 1.2812410150505458e-09 1.4288586011080043e-10 2.4547169438588146e-11 5.761330685711038e-12 1.4426421030190459e-12 3.6740264048023636e-13 7.461047607238177e-14 7.562098416669854e-16 1.0799281428793122e-17 2.021270550295323e-18 4.552838333248777e-19 8.396172880601228e-20 1.4103741325698174e-20 2.1988805973483305e-21 3.221111212259432e-22 4.442745186827711e-23 5.741316262536662e-24 6.85743164520848e-25 7.462527179690702e-26 2.1029045755511369e-22 1.0438562908051717e-17 1.3633305358719918e-17 8.516987695451743e-18 4.483957528065586e-18 2.5147796372605925e-18 1.5897354738691517e-18 1.1542993062092872e-18 9.577528271754678e-19 9.008991296795818e-19 0.9999986062355788 0.2573722160678139 0.0615643842156632 0.01466183318658262 0.0029274932134801535 0.0005347962100181028 9.003270017707324e-05 1.4145045253825123e-05 2.0796767647052534e-06 2.850499158496209e-07 3.597208410249842e-08 4.1027945355280015e-09 4.199831849075649e-10 4.315849286747318e-11 5.225311945144675e-12 8.767517414488431e-13 1.8965920054121209e-13 4.66121570068286e-14 9.606857629209838e-15 1.3648322826407774e-16 7.352322269457853e-18 1.2341770167408154e-18 2.1481464659486153e-19 3.523784015891035e-20 5.529981496014194e-21 8.310715072594875e-22 1.197619020624725e-22 1.650279321044311e-23 2.1575967631405036e-24 2.638842087240817e-25 2.9405900537323775e-26 7.626317544945895e-24 4.897289920653411e-19 7.8033899590296685e-19 5.732276568418404e-19 3.3523634044978137e-19 2.018680048053766e-19 1.3373473559665574e-19 1.0002215310776903e-19 8.435991258350275e-20 7.976851200587774e-20 0.9999985504474094 0.1868565179514329 0.030738697189460276 0.005561388454593291 0.0009289156485566876 0.0001467536567156465 2.2292927337190618e-05 3.2769985693540864e-06 4.6659738402432106e-07 6.403957015159728e-08 8.387295905671945e-09 1.0336919913660674e-09 1.1871226036885264e-10 1.3080607430003392e-11 1.4724290378107324e-12 1.9062911349062697e-13 3.113979860545318e-14 6.39352863107329e-15 1.2263192242177964e-15 3.163103949957617e-17 3.0406644817264823e-18 4.518191371901494e-19 6.857198973328988e-20 1.0262489081094925e-20 1.5095998815582204e-21 2.1847048695723696e-22 3.099763462005715e-23 4.288438458271033e-24 5.728694492398488e-25 7.272539286023219e-26 8.576940988414112e-27 3.947978096518869e-25 2.9839796472179097e-20 5.495693568783499e-20 4.5036113563193914e-20 2.8522187292532757e-20 1.8141307973956395e-20 1.246690602203612e-20 9.54340227241257e-21 8.15311552360225e-21 7.741123625206236e-21 0.9999985011182762 0.12554036781751932 0.014386220246079667 0.0019870372892197745 0.0002761673286942593 3.8043571500429014e-05 5.228799237829028e-06 7.214985078244947e-07 9.993094184208718e-08 1.3808454147283212e-08 1.880305430144956e-09 2.4785730134941957e-10 3.1080682349080206e-11 3.702671905116866e-12 4.27837400187939e-13 5.0685807901795205e-14 6.678304302507731e-15 1.0588954984978713e-15 1.7240879258986698e-16 8.192852092325996e-18 9.22933909281159e-19 1.2383148777984255e-19 1.7000961924591938e-20 2.3495538984376528e-21 3.2693851255329148e-22 4.5770486908975084e-23 6.428971424733809e-24 9.004458050270384e-25 1.2442937943817445e-25 1.6672621256179255e-26 2.1112825409333488e-27 2.5699831118646977e-26 2.23879305918157e-21 4.619687552889463e-21 4.1154235832487584e-21 2.760673937209181e-21 1.825637399326714e-21 1.2871350620496108e-21 1.0012795784316588e-21 8.630081341619413e-22 8.217126813985878e-22 0.9999984665504019 0.0827102305277277 0.0065374207384967355 0.0006776686429823882 7.71534284155357e-05 9.212773464968857e-06 1.1484550031409652e-06 1.4970904149841885e-07 2.035188732770282e-08 2.860799508070768e-09 4.0904755563291106e-10 5.799121271288128e-11 7.896640806623535e-12 1.0127569154229136e-12 1.2215754919687594e-13 1.4217388252634142e-14 1.6798026522273148e-15 2.1616491429483783e-16 2.8932884436100366e-17 2.049849609633083e-18 2.294423838973128e-19 2.7926671597243596e-20 3.5000553180349945e-21 4.505505988481139e-22 5.970389177447157e-23 8.147340284790037e-24 1.141988600472722e-24 1.6356217108152134e-25 2.3708092111284427e-26 3.413898963501202e-27 4.734126209705263e-28 2.032060765890325e-27 2.0046309155143725e-22 4.584019094172805e-22 4.345253178792921e-22 3.029330630054185e-22 2.0502772412424433e-22 1.4664704051600073e-22 1.1507437419514813e-22 9.965074167838435e-23 9.502380562763833e-23 0.9999984404049126 0.05018589930438653 0.0025396469922304658 0.00019068583844694987 1.724189765672618e-05 1.750886962804836e-06 1.9662263657563854e-07 2.4237229392500285e-08 3.257445943726981e-09 4.729204501208216e-10 7.280436829879556e-11 1.1432622516985968e-11 1.7325691545908795e-12 2.4124638318380387e-13 3.026072992198609e-14 3.5083177138540397e-15 3.904192349453315e-16 4.418750594625559e-17 5.058045071459094e-18 4.085089690148169e-19 4.205621540095479e-20 4.554131482584766e-21 5.128365205499117e-22 6.077531723822907e-23 7.627167884804299e-24 1.0145751022262773e-24 1.4264803654856e-25 2.1136572651163304e-26 3.2863700179468465e-27 5.275132968719199e-28 8.376012601329081e-29 1.8984261233342307e-28 2.1533899431131776e-23 5.339051007879345e-23 5.2889632047508044e-23 3.745723327535503e-23 2.5536676313042756e-23 1.8322970634479183e-23 1.440046635394722e-23 1.2479344042531671e-23 1.1902526675992205e-23 0.9999984077848054 0.009309179980415033 0.00036390659239415364 2.1288959874560678e-05 1.426103329190013e-06 1.1375117743681545e-07 1.045057636521229e-08 1.1232209594383585e-09 1.445297577575817e-10 2.2553993441800235e-11 4.354886055242178e-12 9.303451917491295e-13 1.9671806176671258e-13 3.039140390861556e-14 4.096915932084319e-15 4.581730232322976e-16 4.8603282060036124e-17 5.133513561913019e-18 5.359877860681679e-19 3.846273642514471e-20 3.301604872544464e-21 2.7813646854804813e-22 2.3933422499743233e-23 2.177257695129139e-24 2.253651136514781e-25 2.677267595303411e-26 3.72189002283785e-27 6.153612986320967e-28 1.19604869954192e-28 2.75309865718536e-29 6.502957853505533e-30 2.1147373175760323e-29 2.7312815377282474e-24 7.475066018308168e-24 7.357323940217678e-24 5.1749943441666175e-24 3.494152105968126e-24 2.489369704661169e-24 1.9469857831163496e-24 1.6826692512618022e-24 1.6034854650626222e-24 0.9999984013153292 0.0014537362562528783 4.954216119205901e-05 1.3931585990354703e-06 6.414388045058398e-08 3.788943665475299e-09 2.7774651659500567e-10 2.5696109255608627e-11 3.176875222907698e-12 5.644877510977506e-13 1.3683678335083374e-13 6.661977878672485e-14 2.0175106037431686e-14 5.169079887333504e-15 6.021683683959651e-16 6.323260363484384e-17 6.195545502427199e-18 6.033806621602356e-19 5.706409981445905e-20 3.564401669827585e-21 2.386266546698841e-22 1.3695090674373503e-23 6.270981074808537e-25 3.997233376464748e-26 3.2399155476234465e-27 3.3678766024393167e-28 4.6636721927426546e-29 8.87602615892147e-30 2.3689606764361405e-30 7.794534467987819e-31 4.745822815632554e-31 2.2912244820575695e-30 4.987491931798317e-25 1.2153106785307511e-24 1.158700477564429e-24 7.859269494577988e-25 5.187664678799462e-25 3.638627407009987e-25 2.8184602669535357e-25 2.4229745143730856e-25 2.3050747142927005e-25 0.9999984002365446 0.00029909302861863074 3.2882273285790407e-10 6.969375753125232e-12 3.2132048805217155e-13 1.8491455626188193e-14 1.338452942709098e-15 1.2290894356665828e-16 1.5220324096174e-17 2.7846021120514342e-18 6.762982344607609e-19 4.980586681339587e-19 6.310392762937662e-15 9.497695335613117e-16 1.0077949727917473e-16 9.310635266680078e-18 8.350322978115288e-19 7.446808818673407e-20 6.3870653956010406e-21 3.5513928904417765e-22 1.7683565084598083e-23 2.323338942560144e-29 1.6224728957561595e-30 1.1958078028810594e-31 1.0779154541399997e-32 1.217279945628474e-33 1.8177976076430941e-34 3.726492196075012e-35 1.094690794266106e-35 3.812285112592802e-36 3.700855727402795e-36 7.529329487306082e-31 1.0047649338040296e-25 2.2847324491089004e-25 1.9874899315939903e-25 1.2872412828850434e-25 8.226582459646811e-26 5.654900795912152e-26 4.3261299002225626e-26 3.694369156852438e-26 3.507217019258211e-26 0.9999984000473716 5.990246305987113e-05 1.2749162191198784e-12 3.215536771490629e-17 1.4356535854773394e-18 8.385090737362607e-20 6.063427201801705e-21 5.560371003559319e-22 6.904815381255911e-23 1.2674327145326736e-23 3.227141934220986e-24 2.2445392829472078e-24 1.3996600552035201e-15 1.9661816894049693e-16 1.7121501041767606e-17 1.429274372816568e-18 1.168637527397631e-19 9.613900322562455e-21 7.5959933909072615e-22 3.836026545312081e-23 1.6986631687200855e-24 4.0387892322944235e-35 3.858260733943769e-36 3.4135404789868985e-37 3.4478065852214076e-38 4.249506055570041e-39 6.8294344902019054e-40 1.5019926890287029e-40 4.701454070260952e-41 1.8169249716633117e-41 1.7414650832821365e-41 1.8317690771783326e-31 2.304754739304193e-26 4.448483607919372e-26 3.608273580571466e-26 2.216800628077893e-26 1.3714436471873204e-26 9.231886098770914e-27 6.974067424134688e-27 5.915694658747803e-27 5.60418275346112e-27 0.9999984000113351 1.310120961578252e-05 1.2991061249116164e-12 1.331385046428002e-18 7.586307172142205e-24 3.5239282687954472e-25 2.5770648151502e-26 2.3652586639574114e-27 2.9223793553901224e-28 5.32243033246668e-29 1.319571885519872e-29 8.58577195423994e-30 2.6248376629321823e-16 3.558253809306179e-17 2.8782796399494793e-18 2.197087393008597e-19 1.6709589041722178e-20 1.2871541903930204e-21 9.561198749165983e-23 4.544223587910407e-24 1.90920496166598e-25 8.259623583905415e-41 9.355326128574912e-42 9.575629229617227e-43 1.077021595076799e-43 1.4402365589186344e-44 2.4716980077729638e-45 5.7396883364753236e-46 1.8846158162468053e-46 7.467888349727405e-47 7.049764771493252e-47 3.9086149329405626e-32 4.7816564650666346e-27 8.736259971361818e-27 6.665878949720163e-27 3.93474893954069e-27 2.3676317842667144e-27 1.5661209238924487e-27 1.1707625865895078e-27 9.875945507834623e-28 9.340252737384192e-28 0.9999984000042879 3.866074473122895e-06 2.045614928143847e-12 2.7227882209064306e-18 4.0906744640775436e-24 8.362750842703408e-30 1.032192022057525e-31 9.466192795187517e-33 1.1548603860009895e-33 2.0467843001180945e-34 4.824069404008036e-35 2.840333409250867e-35 4.441615546064675e-17 5.923172908336348e-18 4.588958290914546e-19 3.326535508147575e-20 2.403760880164319e-21 1.7701089457128367e-22 1.263813675946371e-23 5.807610133640725e-25 2.38176237993254e-26 1.8252391643913432e-46 2.363184941339875e-47 2.7098932350755145e-48 3.33789231236065e-49 4.785886353089821e-50 8.657826528754887e-51 2.0894668639476713e-51 7.017523708926131e-52 2.779684831252499e-52 2.5092823338065894e-52 7.756591864476582e-33 9.38192113226526e-28 1.665346186096882e-27 1.2317118556726123e-27 7.081184454864967e-28 4.185155273040907e-28 2.736867209922189e-28 2.0328667827841007e-28 1.7092870297852265e-28 1.6150384235462215e-28 0.999998400002896 2.0465470709847153e-06 2.469281776424295e-12 3.898543594297323e-18 6.49168515344217e-24 1.1635024369977713e-29 2.298635444195338e-35 3.5979319930790974e-38 4.2925971833930205e-39 7.3159939710485714e-40 1.6173107978279464e-40 8.652190353936627e-41 6.956380372762066e-18 9.197521854803137e-19 6.97004802984546e-20 4.908287444818209e-21 3.4479571679288835e-22 2.4791473056715766e-23 1.738086018094968e-24 7.884962305894108e-26 3.2085930661926006e-27 4.2945551849044906e-52 6.225647555264219e-53 7.853783529052526e-54 1.0422861649886942e-54 1.5791445872085766e-55 2.96737092020971e-56 7.321878269837064e-57 2.4719822163227048e-57 9.63545839035948e-58 8.359388630886265e-58 1.4611712115481455e-33 1.759057058263656e-28 3.086715060772663e-28 2.2521450475715937e-28 1.2806465580677334e-28 7.516061564514046e-29 4.898510091237132e-29 3.634087276778299e-29 3.0554041237012874e-29 2.8869317873636765e-29 0.9999984000100657 1.098905588310492e-05 2.3053802435864524e-11 4.055338152344784e-17 7.288316103620264e-23 1.3540489290799501e-28 2.63265379813197e-34 1.0885556543756121e-38 5.1050006854419536e-40 2.147346386965547e-41 6.856289153823001e-43 9.139705972748933e-45 1.0208449164143636e-18 1.3448399519178156e-19 1.0097398762178747e-20 7.033753456599488e-22 4.899893914144573e-23 3.512456723481315e-24 2.4688436926112485e-25 1.1269214661738444e-26 4.613281111001322e-28 1.0672268458924407e-57 1.7234179935330917e-58 2.3645731789755473e-59 3.3357371279510855e-60 5.261431644300486e-61 1.0110921314652862e-61 2.510492126102453e-62 8.393335998520162e-63 3.186587604559121e-63 2.6476664318921784e-63 2.6325487750634966e-34 3.168767920903401e-29 5.559583022117087e-29 4.061255082050574e-29 2.316247111678296e-29 1.3659449321416998e-29 8.952186517683219e-30 6.6753543540438e-30 5.6323243136462126e-30 5.328675247723002e-30 0.9999984000304721 3.649204589442422e-05 8.214786164704156e-11 1.5777785835899403e-16 3.00124522085214e-22 5.740611453321263e-28 2.326546844660184e-31 1.2932385016951162e-32 6.38107370247083e-34 2.6838851735160617e-35 8.56402753655354e-37 1.111570452599309e-38 1.4074450378505715e-19 1.8539990040472883e-20 1.393215047908848e-21 9.744493407607765e-23 6.856516806826499e-24 5.002149374151537e-25 3.6032962719239844e-26 1.6896664053804263e-27 7.070202442960029e-29 6.322352253172267e-55 1.5446347582289022e-55 3.2941541552658407e-56 6.536554937916066e-57 1.2312639552542957e-57 2.2185433345457864e-58 3.8153745488610933e-59 6.183427832338928e-60 9.159097175020444e-61 1.1421067518692642e-61 4.526019916826298e-35 5.470494975708068e-30 9.706534155615831e-30 7.203649310552926e-30 4.181827781511407e-30 2.5094305177689436e-30 1.6702009535295865e-30 1.2605662016350926e-30 1.0718140760347178e-30 1.0166840757688136e-30 0.9999984005330184 0.0006645077209137073 1.7597670875611253e-09 3.639715842389247e-15 7.343283754277431e-21 4.6015605319037585e-24 2.894502141001357e-25 1.616554899651526e-26 7.9763758886773955e-28 3.3548700574098974e-29 1.0705075223975315e-30 1.389467958962527e-32 1.814184580256845e-20 2.3969324215127877e-21 1.8182555822289084e-22 1.2947000864857566e-23 9.36380245180163e-25 7.099941015032889e-26 5.372161228296193e-27 2.661525074790097e-28 1.1634163630327487e-29 7.902967399037602e-49 1.9308006572198717e-49 4.1177090615787816e-50 8.170727369175543e-51 1.5390864145826907e-51 2.773190886079311e-52 4.769238201357076e-53 7.729316617225997e-54 1.144891713223431e-54 1.4276388258001853e-55 7.330157600213736e-36 8.952885886835385e-31 1.6320251277209557e-30 1.2534689276723815e-30 7.5353992030915195e-31 4.666866055811507e-31 3.188845264886666e-31 2.454709814891598e-31 2.1129291900264997e-31 2.012497228988127e-31 0.9999984003222218 0.00040165192490603386 7.641620538286046e-10 2.697401732761733e-15 7.866453719807837e-17 5.734540733186912e-18 3.6181433320581204e-19 2.0207023612235978e-20 9.970511523425153e-22 4.1936042697786894e-23 1.3381393934322212e-24 1.7368408862087392e-26 2.1586673600173556e-21 2.8668679336829875e-22 2.215980282790929e-23 1.6270276554995783e-24 1.2311579053418551e-25 9.899246187163454e-27 8.08190955500102e-28 4.3908831655917674e-29 2.1057792285922743e-30 9.878744784072658e-43 2.4135105151033293e-43 5.147158078757487e-44 1.0213453447758553e-44 1.9238663658428572e-45 3.466503517650228e-46 5.961572920142325e-47 9.66168537845767e-48 1.4311202680960278e-48 1.784555188612074e-49 1.0838934673909786e-36 1.3565445746465226e-31 2.6126965401479086e-31 2.1355700254905226e-31 1.357731795432158e-31 8.819610282250533e-32 6.261253747094865e-32 4.956759921856923e-32 4.340300710671817e-32 4.157849059836656e-32 0.9999984240938328 0.02983429350640054 1.6502350321381015e-07 1.1128728343912964e-09 9.832645880153456e-11 7.168208532879489e-12 4.5226993723897314e-13 2.5258889128223028e-14 1.2463191437854803e-15 5.242026149019657e-17 1.6726804400480586e-18 2.1710584263697427e-20 2.3289303011884203e-22 3.119411184299407e-23 2.4542356691224692e-24 1.897026392120696e-25 1.5266409417305333e-26 1.3272162802454772e-27 1.1871239561691908e-28 7.444592567223017e-30 4.221558176847125e-31 1.2348480376252814e-36 3.016901320431208e-37 6.433977637241492e-38 1.2766875501269643e-38 2.4048438242555845e-39 4.333148518283665e-40 7.451998098226396e-41 1.2077156548351453e-41 1.7889073211291794e-42 2.2307020657798105e-43 1.3447780561480808e-37 1.7995133709987995e-32 3.953349081965753e-32 3.5652234099949656e-32 2.457853674017736e-32 1.7042707299523622e-32 1.273322322258605e-32 1.045979744401713e-32 9.367322553808099e-33 9.041421288855369e-33 0.9999984407459842 0.0498315681660668 0.011605818798455984 0.0013906258530279952 0.0001229086654378421 8.9603028886099e-06 5.65339994849895e-07 3.1573750068859936e-08 1.5579054931557873e-09 6.55255892259865e-11 2.09085844928847e-12 2.7138321793000896e-14 1.936149561833252e-20 3.999141885336764e-22 1.4639791664427982e-23 7.6351813749460655e-25 4.969383918783621e-26 3.867383082189432e-27 3.48096925935741e-28 3.7873947375676754e-29 3.843074594810679e-30 1.543566013813534e-30 3.7711484408480032e-31 8.042513161249717e-32 1.5958672838559606e-32 3.0060689286075148e-33 5.416460267704946e-34 9.315038482061843e-35 1.5096509205203028e-35 2.2361430100748726e-36 2.7883874400814634e-37 2.5624028549772927e-38 2.1061876257806852e-33 5.65182413943461e-33 5.8759025190274834e-33 4.5026361232645507e-33 3.394135580621241e-33 2.705489028399882e-33 2.328739950354002e-33 2.1455832347811402e-33 2.0907624753217133e-33 0.9999984908307772 0.11416293901968204 0.010369615250800485 0.0010823710294673556 8.848287453735474e-05 6.204112265727098e-06 3.834476521200049e-07 2.125424434512276e-08 1.0547381859254487e-09 4.5606259320975776e-11 1.598169983725976e-12 3.348801044233751e-14 7.419310713213118e-16 1.9337389212934122e-17 8.9778737275904e-19 5.41350487652285e-20 4.021938796215029e-21 3.5611345895960447e-22 3.780867645829043e-23 4.692294721814872e-24 8.560991924138754e-25 1.7228742766469792e-25 4.389901658089344e-26 9.31290774007741e-27 1.846144911702336e-27 3.475297887951146e-28 6.267766996625598e-29 1.0810460685590887e-29 1.7636301743831034e-30 2