# vtk DataFile Version 3.0
vtk output
ASCII
DATASET RECTILINEAR_GRID
DIMENSIONS 41 41 1
X_COORDINATES 41 double
0 1 2 3 4 5 6 7 8 9 10 11 12 13 14 15 16 17 18 19 20 21 22 23 24 25 26 27 28 29 30 31 32 33 34 35 36 37 38 39 40 
Y_COORDINATES 41 double
0 1 2 3 4 5 6 7 8 9 10 11 12 13 14 15 16 17 18 19 20 21 22 23 24 25 26 27 28 29 30 31 32 33 34 35 36 37 38 39 40 
Z_COORDINATES 1 double
0
POINT_DATA 1681
FIELD FieldData 1
Concentracao 1 1681 double
0.0 4.6184311075576845e-23 6.586140295616713e-17 1.0780070499082656e-16 1.494677850369974e-16 1.8987448507530348e-16 2.283811027761755e-16 2.6517867445670666e-16 3.0059434513737724e-16 3.356357880423577e-16 3.69540045165434e-16 4.0656478702213135e-16 3.6765533634477774e-16 2.5650865960308626e-16 1.9822487997762534e-16 1.5711514077547166e-16 1.296545256011442e-16 1.110003166405581e-16 9.960060464764592e-17 9.916864548098408e-17 8.190894044843654e-15 4.750390517344055e-12 4.727870696589516e-12 4.727152281056385e-12 4.734011997920353e-12 4.743088080250108e-12 4.7551648851907356e-12 4.771497119025494e-12 4.786475554352773e-12 4.814625681889636e-12 4.505631063400108e-12 4.1025984460688724e-12 2.8769955706919297e-12 2.2848347273524923e-12 2.139376153146076e-12 5.6343781605437585e-12 4.9880545169277773e-11 3.25604279844293e-10 1.2409802741206639e-09 2.975311615000168e-09 4.03821838876326e-09 4.198879998000225e-23 5.773043477240147e-17 8.232681955661187e-11 1.3475098903923819e-10 1.8683488076403177e-10 2.3734329411059227e-10 2.8547660685132214e-10 3.314736061887051e-10 3.7574322083583603e-10 4.1954507068873516e-10 4.619254259968377e-10 5.082063833461066e-10 4.5956953675976207e-10 3.20636079659835e-10 2.4778129819691165e-10 1.9639408308448036e-10 1.6206828660197497e-10 1.3875050610781729e-10 1.2450085541016205e-10 1.2396090593730216e-10 1.0238625740128412e-08 5.937992870040863e-06 5.909843098607592e-06 5.908945066008296e-06 5.917519731412439e-06 5.928864843400716e-06 5.943960861653305e-06 5.96437616763021e-06 5.983099225763093e-06 6.01828691640308e-06 5.632043333601318e-06 5.128252160184537e-06 3.5962473403604826e-06 2.8560456940253426e-06 2.6742223221242183e-06 7.04297833486238e-06 6.235073134214239e-05 0.00040700567540964607 0.001551226583631104 0.003719142494061825 0.005047777024172463 5.559922410348677e-17 8.232865869723985e-11 0.00014259449033485034 7.45786365425845e-05 6.728301783272591e-05 6.360022307339716e-05 6.025938297268902e-05 5.752734857264099e-05 5.537771679014174e-05 5.5596768710821276e-05 5.3434687187770694e-05 0.00010526369524313032 3.110734155043796e-09 1.9952427605844913e-09 1.2540114236897432e-09 8.852711402412308e-10 6.613965206893129e-10 5.224917277398483e-10 4.419642693971942e-10 4.014664967112281e-10 8.195803359513523e-08 4.563199411287352e-05 4.238393391194361e-06 4.261855548879697e-06 6.698288242741687e-06 8.084267918041225e-06 9.159631535214953e-06 1.006523205662007e-05 1.126238179951355e-05 1.1881917279816586e-05 2.6553140565530388e-05 5.1998002774624e-06 4.649607549855857e-06 4.136819108051456e-06 4.820833937907743e-06 1.908927415154321e-05 0.00016733458477845937 0.0009682615426246983 0.003331406971439996 0.007335101661925501 0.009286325086791346 1.3627063374646647e-16 1.394946588561231e-10 8.080339951331064e-05 3.9720814839539625e-07 1.7064313888330544e-07 1.5246118763895165e-07 1.3683923227665882e-07 1.2383017496097536e-07 1.1409495616119773e-07 1.1036929810570746e-07 1.121915456441586e-07 5.452374819487971e-06 3.2712101924810407e-09 2.3420995681574663e-09 1.765633495839602e-09 1.3474096073652479e-09 1.0598318598087538e-09 8.574748976376094e-10 7.199912585753892e-10 6.466294551600273e-10 1.7225220872656653e-07 3.149448656674603e-05 3.031442711100991e-08 9.672897689334835e-10 1.914549843663424e-09 2.6889061944752673e-09 3.3288812461916743e-09 3.9153952789628855e-09 4.625705657018933e-09 6.113028846441302e-09 4.2992109144712365e-06 5.475981265338875e-06 5.172795041021515e-06 5.339439039179528e-06 8.84343014057277e-06 4.989661061186494e-05 0.0003794751131277745 0.0018346231389468665 0.005511219066572854 0.010935627118501278 0.012812228875385847 2.244821315041351e-16 1.961197842950252e-10 7.30659032992638e-05 1.8519782243234682e-07 4.4357080658670407e-10 1.8182476433550147e-10 1.541113863502415e-10 1.314241635103141e-10 1.13920031520911e-10 1.042332201600067e-10 1.1209718358542699e-09 5.259006412816664e-06 3.471777202175977e-09 2.5826879571541743e-09 2.0449248772515032e-09 1.6490522154351756e-09 1.34466980544699e-09 1.1107520707136147e-09 9.328736387601878e-10 8.090367933180504e-10 3.110331841893836e-07 3.161116810972985e-05 2.8827093507208594e-08 1.2301751049222392e-11 3.1384677796720654e-13 4.746619309534501e-13 6.223842552330416e-13 7.60078695713828e-13 9.715582829807247e-13 6.113897198321949e-10 4.2888512054471805e-06 6.883155046801572e-06 7.159730078199525e-06 9.455113218689768e-06 2.5270696897774386e-05 0.0001467874932823149 0.0008368714834840906 0.003211123248479243 0.00821278919174154 0.014509357811167186 0.0156745772342135 3.129478385834805e-16 2.5099839465201473e-10 6.908946589830456e-05 1.6555792962007596e-07 1.9733758611984105e-10 2.9992828829646975e-13 1.1495106325198698e-13 9.13903934610683e-14 7.324720510006935e-14 1.5782580500743186e-13 1.0088516104676484e-09 5.260310806999767e-06 3.6906831685604003e-09 2.7628654035970422e-09 2.2439241954804307e-09 1.8590882210880454e-09 1.5517803876392922e-09 1.2997228424174235e-09 1.0911040042123347e-09 9.28150908897266e-10 5.08718881302385e-07 3.084750740440114e-05 2.7802932815637624e-08 1.1745669206390683e-11 3.1793740154737e-15 6.108708252259009e-17 8.071318459532822e-17 1.0086555222789738e-16 3.933662314122693e-14 5.666610066865605e-10 4.2887694804032205e-06 1.9713016136394784e-05 2.388479975877968e-05 4.037316843885493e-05 0.00011231392728828978 0.0004567601544865703 0.0017959180634699167 0.005319202699285263 0.01145568854340989 0.017950747686276823 0.01789230032250796 3.9909414379483637e-16 3.0329081145595165e-10 6.546402276551508e-05 1.4860230637664648e-07 1.672954954621018e-10 1.2472171643534663e-13 1.3344306424034972e-16 4.7056857162566146e-17 4.012547848629659e-17 9.355218700570868e-14 9.915143135461289e-10 5.261944675046985e-06 3.921185884411472e-09 2.917427486261511e-09 2.3986467297843642e-09 2.0193342665883387e-09 1.7098836877359417e-09 1.4453023852070031e-09 1.2130968263933348e-09 1.0237953358059751e-09 7.824597013685033e-07 3.0496101931221416e-05 2.6784259292200767e-08 1.1176237676755173e-11 2.962009323102893e-15 5.727388235508458e-19 8.397095716379952e-21 1.5033325050818487e-18 3.309133396790745e-14 5.157445966044475e-10 4.287432331228429e-06 0.0001264420510698278 0.00015317906477511575 0.00023614173209241952 0.0004936992476784653 0.0013196600742409494 0.0036064524223279265 0.008292063511673784 0.015112348162888128 0.021091429870326972 0.019472015600314013 4.821592605942376e-16 3.532620177061337e-10 6.249714688061922e-05 1.3447720824199271e-07 1.4266962188411992e-10 9.917188511149513e-14 5.103844942688856e-17 4.069355969840771e-20 5.5555996040774084e-18 8.979560896279643e-14 9.714387265977084e-10 5.263481179334728e-06 4.1534930717015615e-09 3.0604510106111627e-09 2.5317062853836472e-09 2.152401614607151e-09 1.8399593558541128e-09 1.565129425642134e-09 1.3138934495942513e-09 1.1103629395404914e-09 1.1436029300669166e-06 3.029944081199217e-05 2.5962272338776153e-08 1.0605016946116542e-11 2.7499701358354234e-15 5.127243639273452e-19 1.6780320660991754e-22 1.1297944067984698e-18 2.6899500410597326e-14 4.579023183170262e-10 4.278134890027129e-06 0.0007006390842108213 0.0008007262571658825 0.0010622196889116323 0.001703267460660042 0.003253030974219701 0.006554867120047209 0.012060412502694896 0.018922002409432988 0.023753047285097414 0.020425914946993924 5.62178201256892e-16 4.013575855193988e-10 6.016296421326958e-05 1.239072031135143e-07 1.2366985444909122e-10 7.948542338680589e-14 4.376695431103029e-17 6.253905002770818e-18 1.0984084582695294e-17 8.564543789945437e-14 9.485087410120998e-10 5.265002710317306e-06 4.380640296527027e-09 3.2053953603275223e-09 2.659518416920638e-09 2.27558216090029e-09 1.95836433223591e-09 1.6740437697854508e-09 1.4062771235441364e-09 1.199898539164738e-09 1.5840086337085489e-06 3.037630314365523e-05 2.5553138339677654e-08 1.017834745323236e-11 2.5583885192078275e-15 2.3317726277089875e-18 1.6902283385337811e-18 2.3162272082106076e-18 2.0849970559006975e-14 3.926302971292433e-10 4.235771062172637e-06 0.0027627377800260667 0.0029778961252221793 0.0034642576184435773 0.004522954629567443 0.006714050075909151 0.010658800129893157 0.016331510522555475 0.022568370449503702 0.02580377482978442 0.020787605446605417 6.403273810067259e-16 4.489715594442512e-10 6.0420956694814516e-05 1.1990198766077145e-07 1.1319751865075181e-10 1.7510927185627424e-13 1.052117109171818e-13 1.0099167202818391e-13 9.63270388609016e-14 1.7216211985885574e-13 9.223760673947308e-10 5.266530001403757e-06 4.596819771648606e-09 3.3688491986323327e-09 2.7998004681964493e-09 2.4053747521300982e-09 2.0801940592628885e-09 1.7858110565107024e-09 1.5027797626381642e-09 1.3024829027340647e-09 2.047471034581381e-06 3.130618843552676e-05 2.5957029248569228e-08 1.0133843887584832e-11 4.761928099089824e-14 4.239120553739791e-14 3.9474043288314385e-14 3.6465204201114875e-14 4.841427820533993e-14 3.1816618181823133e-10 4.0892700614507466e-06 0.008054766678335108 0.00823160082002235 0.00857616405155469 0.009563662881625547 0.011771673288974022 0.015596372761741367 0.02069127830688533 0.025778340616830306 0.027194982309441267 0.020620857942509993 7.164861548760759e-16 4.95039776938458e-10 5.8079067411269754e-05 1.219365165295067e-07 1.255854861315596e-09 1.1335539124588985e-09 1.1140919813566814e-09 1.0915539296312352e-09 1.0658112759807286e-09 1.036453081587794e-09 1.893376509591099e-09 5.269066283095167e-06 4.800434851948136e-09 3.575897058993805e-09 2.9789104002496056e-09 2.5631970489765872e-09 2.2228228299127287e-09 1.915557482016474e-09 1.61770956665955e-09 1.4272236763995243e-09 2.4491718772643947e-06 3.1406559650962424e-05 2.76422538179525e-08 7.032912702805724e-10 6.731957904885078e-10 6.512064461427219e-10 6.274577191385645e-10 6.019108651415339e-10 5.743076157107267e-10 7.735002103728579e-10 3.6546499621166215e-06 0.01793541467626967 0.017467988393904704 0.016740780134680503 0.016624488629018826 0.017918128898775594 0.020806680025617294 0.024742832710164527 0.028385703071812964 0.027965712454260543 0.020018573926736713 7.982218980829584e-16 5.471561036328316e-10 0.00011616660547619846 6.1174028658947884e-06 5.904214272893637e-06 5.90568322594827e-06 5.907519216859453e-06 5.9092458330500645e-06 5.910955653076096e-06 5.912671959611567e-06 5.91529822438231e-06 1.1184559179621384e-05 6.076523591434288e-09 4.67588608324188e-09 3.782856219190904e-09 3.137271206253958e-09 2.6334460130817173e-09 2.213803106217771e-09 1.842253944454909e-09 1.613423423658686e-09 2.3523979108169967e-06 5.268763271671377e-05 5.1496021603349075e-06 5.111855321637196e-06 5.112163181993679e-06 5.112462608284897e-06 5.112670901636384e-06 5.112792968478814e-06 5.112769199847673e-06 5.112563767243049e-06 7.245427963214371e-06 0.024983119848137846 0.02477307873763311 0.023690417065051313 0.023163236871051898 0.023683399343158492 0.025505697661391533 0.028150216705568498 0.030331191505750834 0.028218045456947637 0.019092135848602688 7.945959121546777e-16 4.947897631355745e-10 3.4204881026870733e-09 3.600617888642032e-09 3.825779605387791e-09 4.071543602644561e-09 4.330326889292263e-09 4.591135687443606e-09 4.846151015309225e-09 5.088852327737748e-09 5.317414369196948e-09 6.691846212442712e-09 4.5192549164931104e-08 4.480865475593402e-08 3.522812640838927e-08 2.4983406315437283e-08 1.6824180616888732e-08 1.0995789810142945e-08 6.943024334953131e-09 4.675991526896441e-09 2.048793677013755e-06 2.4114970400421873e-06 3.1527831318914243e-06 4.441786266931744e-06 6.615700051083321e-06 1.0335855134982378e-05 1.688339092347774e-05 2.889601302690685e-05 5.2246073261489175e-05 0.00010146516202319575 0.00021655156684226705 0.0005363071014509719 0.010723903018588835 0.01885027136259714 0.02396887335734354 0.026746244952394936 0.028769554449176196 0.03063530328257856 0.031623512417097224 0.028078573067203252 0.01795564477260613 6.484850884347516e-16 3.4520825642434796e-10 2.191007168514802e-09 2.5741996343216993e-09 2.840749656408213e-09 3.0408957277406363e-09 3.2129519033510277e-09 3.3724184345910646e-09 3.534218639448827e-09 3.71684282254569e-09 3.948314998201948e-09 5.160926843830519e-09 4.510971417837138e-08 9.663247562789153e-08 1.1757507702111686e-07 1.1154377176710305e-07 9.218106089136906e-08 6.971730824372003e-08 5.007053184285562e-08 3.380735555152023e-08 1.1557522615348174e-06 2.0466865055991787e-06 2.846171761693874e-06 4.147556294793797e-06 6.291998908982938e-06 9.946177920316115e-06 1.6371977242851667e-05 2.816022414674748e-05 5.1062129114591055e-05 9.934708373960143e-05 0.0002118654232562388 0.0005563836050983517 0.004012204354672712 0.012135366223166036 0.020533020731582755 0.02659071212637462 0.03015337497404116 0.03207045125305461 0.03231660072445669 0.027666353066174303 0.016711021326033672 4.99091407162622e-16 2.667706768253865e-10 1.3747945134525634e-09 1.9387591771263478e-09 2.2470847464042367e-09 2.4671141530010603e-09 2.6384538903018406e-09 2.786021339636241e-09 2.927968495409867e-09 3.0839805938454778e-09 3.2834462824152882e-09 4.172489727594801e-09 3.562393714647967e-08 1.1777850472690185e-07 2.0968535450318175e-07 2.6719558607015565e-07 2.798828357434369e-07 2.596200359923311e-07 2.2345559961187536e-07 1.8682159467900248e-07 8.014344537336034e-07 1.59143044938373e-06 2.562160944265767e-06 3.942408220309615e-06 6.177055123255663e-06 9.942673775408448e-06 1.651829780736633e-05 2.8461744215961983e-05 5.135020629412749e-05 9.869582023896028e-05 0.00020862753632973753 0.000517389113853496 0.0023223095734562905 0.007863713578566344 0.016362805966374874 0.024493788231345084 0.029956606851492155 0.03256157518681088 0.03251127414620297 0.02707870028932481 0.015438604106993693 3.808731607140637e-16 2.1144544782821525e-10 9.691921416923888e-10 1.4781585818977063e-09 1.8106835858718001e-09 2.0424549309772282e-09 2.219463715231714e-09 2.366603586020586e-09 2.5029610772494827e-09 2.6468168815350122e-09 2.8219972398847337e-09 3.456998008880181e-09 2.537918616574302e-08 1.1188246820625026e-07 2.673804409474024e-07 4.406288191376207e-07 5.75468473193946e-07 6.483836066493855e-07 6.686510246074354e-07 6.640299856275729e-07 1.023118836094802e-06 1.7082923274525894e-06 2.7450562397064856e-06 4.346194866713502e-06 6.941904214283368e-06 1.1296324045079052e-05 1.877707409954875e-05 3.198234112879137e-05 5.626511892445178e-05 0.00010407778715532283 0.0002091070668193681 0.0004844297739699711 0.001637579497895598 0.005492191480582296 0.012910648932874488 0.02178846131232991 0.028818167383073797 0.032382619320563744 0.032347747627757065 0.026390749061391817 0.014194523495028899 3.016849216495118e-16 1.7448910616566437e-10 7.231845273676974e-10 1.16167281116053e-09 1.4754147734464936e-09 1.7037118229192198e-09 1.8781135773515683e-09 2.021702701083644e-09 2.15251182628104e-09 2.2872313820203565e-09 2.4451439797797223e-09 2.8990613803981113e-09 1.7181320884453125e-08 9.258804147451376e-08 2.802501113893867e-07 5.75735841106498e-07 9.16635862714733e-07 1.235223545459136e-06 1.5032441764635998e-06 1.7433850629094588e-06 2.2173087202087773e-06 3.0928609954818336e-06 4.554607043965046e-06 6.952563735257997e-06 1.09021967276151e-05 1.7428988564108933e-05 2.8193087689382783e-05 4.5932013853581734e-05 7.558125883139217e-05 0.0001277270119532636 0.00023043005809840955 0.00047501321911572024 0.0013122621493209658 0.004120141882504447 0.010363643003695104 0.019201461530142367 0.027304619205206222 0.03183918915903834 0.031977281016670266 0.025659021853393065 0.013012996374006764 2.509234347994481e-16 1.4938437055189297e-10 5.706847448957607e-10 9.391129510440219e-10 1.217919615932015e-09 1.4260710582323702e-09 1.5865160976575097e-09 1.71864915188216e-09 1.8388163915481127e-09 1.9622145186283863e-09 2.1055930396528743e-09 2.434961443696124e-09 1.1299317139040024e-08 7.012829105149215e-08 2.6013700634205143e-07 6.490336934050383e-07 1.235872880849009e-06 1.9629037986668033e-06 2.7827821089946667e-06 3.7221458681921226e-06 5.030460425657912e-06 7.0715026251048056e-06 1.0368438602475917e-05 1.5734405796635558e-05 2.4424234730918573e-05 3.8238758814169135e-05 5.9532146070393416e-05 9.110835422446645e-05 0.00013644486562238909 0.00020208721498929803 0.0003078133713340834 0.0005256678261328741 0.0011712651001308978 0.0033105132274471104 0.008554667903199186 0.01701497769008118 0.025785189208713626 0.031180944497904983 0.0315321150297365 0.024923633826148577 0.011911254557840414 2.2065777635945144e-16 1.340427227362814e-10 4.823370951454036e-10 7.879758479740453e-10 1.022205020229109e-09 1.1964019122563528e-09 1.3307651574014879e-09 1.4418273378350437e-09 1.5436610164709138e-09 1.650085507997378e-09 1.7769129590555971e-09 2.024623800730198e-09 7.187272431353825e-09 5.0441101304595844e-08 2.2405776014426836e-07 6.697766895888112e-07 1.505109882838991e-06 2.78482035538262e-06 4.555401444413589e-06 6.983430272287261e-06 1.057801635464061e-05 1.629294847802611e-05 2.5637791919499397e-05 4.0850278628451464e-05 6.503228635196374e-05 0.00010199337301153436 0.0001554635854934341 0.00022737396266760582 0.00031574656384708485 0.00041571683233104084 0.0005313645611416678 0.0007143036522836226 0.0012132965659649366 0.002877765862816285 0.007333705159306708 0.015319003348084509 0.02447956275502979 0.030585074683430285 0.031110261817393365 0.024209287383955343 0.01089473017406077 2.147251323803041e-16 1.3346907242782046e-10 4.379641388385319e-10 7.075070491343196e-10 8.863563838005195e-10 1.017808153643899e-09 1.1237262237460728e-09 1.2200683640576785e-09 1.320218308558006e-09 1.4352869761091876e-09 1.5749637636913461e-09 1.7816840819445035e-09 4.89465465709376e-09 3.4112167817303525e-08 1.8747626483113605e-07 6.657755851028689e-07 1.7472920759418413e-06 3.728633410081073e-06 6.99052397097903e-06 1.2284390212149485e-05 2.134672320349965e-05 3.751565272941412e-05 6.616495081245539e-05 0.00011406130139972011 0.00018915204154286517 0.0003003082493956085 0.0004538222049971892 0.0006471675779348594 0.0008619653140487575 0.0010537785032951842 0.0011819287516433366 0.0012624206419285724 0.001554132170569154 0.002821189197531039 0.0066405649661685886 0.014167112943559258 0.023531500742256798 0.030174702765423014 0.03077521456813008 0.023526894980904288 0.009961547624772044 1.7229457840992033e-14 1.2216336762723254e-08 9.769526299016623e-08 2.0414546021513145e-07 3.680857038486698e-07 6.015480327956285e-07 9.248183336584858e-07 1.3513327193724434e-06 1.8716318324901098e-06 2.4197758911377885e-06 2.895836885182868e-06 2.7897702070043334e-06 2.4355989128818984e-06 1.3779460566754878e-06 9.264257325735023e-07 1.0937503881931788e-06 2.262504853010445e-06 5.067533533178773e-06 1.0616167763236842e-05 2.1384774134497998e-05 4.513227441714627e-05 0.00010395367401137895 0.00021932256695618286 0.00040527772110410286 0.0006842685425578316 0.0010775143129091373 0.0015949495776670746 0.00222036992406658 0.0028841321699603095 0.003478275514833388 0.003553874440168565 0.003367456658174127 0.0027384214664564082 0.0033611377478259016 0.006563959613912151 0.013625022085056879 0.0230543277962572 0.0300371116444412 0.030562231196231835 0.02287679283235961 0.009105935659861739 9.664770459835533e-12 7.347579568916511e-06 5.6469194133179954e-05 3.846098070703105e-05 3.843543777161466e-05 3.739980242587922e-05 3.689490031067478e-05 3.659284889085638e-05 3.662627878797932e-05 3.768034238231946e-05 3.77197546818843e-05 6.296220264781727e-05 2.8577066796048043e-06 2.427405764334127e-06 1.8635186033352432e-06 1.8994278078790198e-06 3.2313612872422954e-06 7.187323558843153e-06 1.641482796854618e-05 3.7671214910395116e-05 0.00010416573107999367 2.3731298725277645e-05 1.7901174622337335e-05 2.0642205144753032e-05 2.2904694726848206e-05 2.4826725877668237e-05 2.670500322767024e-05 2.86775456430762e-05 3.144759291224133e-05 3.3144477644006114e-05 5.781697503426596e-05 0.0038085113123093564 0.0036608338481331285 0.004136987773990163 0.0069729210263959306 0.013710907815580355 0.023111660285694995 0.030225910355143458 0.030484008379958474 0.022252925488597027 0.008320573893205405 1.1315111856069989e-11 7.315113099611361e-06 5.378967620580021e-06 3.7148815983609984e-08 3.5134994034913766e-08 3.37879475596207e-08 3.247924550571132e-08 3.142641824395889e-08 3.08800684194257e-08 3.131078494695428e-08 3.3260626938278906e-08 6.123718915128776e-06 3.7361257631605933e-06 3.370859187691427e-06 3.0095536914063922e-06 3.1065301895123367e-06 4.850035305300857e-06 1.0635426263788002e-05 2.5936538287767354e-05 6.65978355898717e-05 0.00022020114528502246 1.8289165839071975e-05 1.039484499697898e-08 6.7467210047799644e-09 7.969164836756705e-09 8.969017481940117e-09 9.897025855318148e-09 1.0906213070705852e-08 1.2267937974775231e-08 1.429853281510768e-08 5.352382140069144e-06 0.004600490548827243 0.004515345170209264 0.0050946241182543645 0.007833170290840892 0.014385922584378139 0.023722591006110107 0.030756588625028662 0.03053540742529165 0.021647946146913018 0.007598129043637804 1.1628924555162619e-11 7.3142621296642565e-06 5.4096042783836215e-06 1.2304535859086841e-09 1.5037280748575814e-11 1.430803036946379e-11 1.3584319993804232e-11 1.2866738472018122e-11 1.2328342884418632e-11 1.2250767489031063e-11 8.380950778408841e-10 6.078493984091368e-06 5.263531051224872e-06 4.911186319004053e-06 4.6361299849170215e-06 4.960943072297268e-06 7.500428868073549e-06 1.626658875842931e-05 4.148430848620037e-05 0.00011505892181310336 0.00040736871247763876 2.118246141487252e-05 6.944213572377941e-09 2.34258611212259e-12 1.453944238131929e-12 1.7045043542192748e-12 1.9325482739342057e-12 2.170482631646884e-12 2.498139800751228e-12 3.447025603987359e-10 5.3140640188163435e-06 0.0057345995846132215 0.005685991144637334 0.006339812606995955 0.009115237620284935 0.015624735652322704 0.024855432920145738 0.031609288597330414 0.030700025441322797 0.02105813130203619 0.006932165794342671 1.1704570050002986e-11 7.324586154103658e-06 8.502179854111177e-06 2.4365927697422086e-09 4.00268293569093e-13 3.8844778699131795e-15 3.608755848234521e-15 3.3443004795069882e-15 3.105991961577166e-15 5.690245897717764e-14 8.021368575959611e-10 6.078860837036775e-06 7.839377650245308e-06 7.449597138674725e-06 7.267804129708007e-06 7.959426884718968e-06 1.1863796397934505e-05 2.5411563379623014e-05 6.626903747504859e-05 0.0001911830653400391 0.0006884578690640093 2.3581397240151892e-05 8.234469518439123e-09 1.5070894160394124e-12 3.7658444191658203e-16 2.240430926126163e-16 2.5892406471325274e-16 2.934256471014533e-16 1.1830245408491356e-14 3.2477885509926545e-10 5.290786214913537e-06 0.007247499665912557 0.0072171558774047516 0.007960775231963679 0.010844189413910188 0.017376400159038404 0.02644884863560238 0.03273687839026039 0.03095943656601762 0.020488292623666127 0.0063176193970175916 1.1737924485994416e-11 7.3380852204854315e-06 1.0261417530519301e-05 3.4222704634472748e-09 6.056719784455849e-13 7.81050946290633e-17 6.998538147105646e-19 6.250230363400171e-19 2.799979730153907e-18 5.062379295754453e-14 7.759895007259806e-10 6.079217989480766e-06 1.2247003294896535e-05 1.1774601592865755e-05 1.1700440625680575e-05 1.2986376953425341e-05 1.9085431147554735e-05 4.0003291438192796e-05 0.00010427292694925068 0.000304111593467464 0.0010850776896769124 2.5631455325959024e-05 9.298899323515567e-09 1.77361582639524e-12 2.3389605737928627e-16 4.6923401124546936e-20 2.6710104177102068e-20 2.9010768476884414e-19 1.0438772507223203e-14 3.066554890917045e-10 5.259199207636363e-06 0.00921149921166069 0.00919205982731794 0.01002431775297893 0.013035788656309024 0.019590448957840116 0.028416251401010756 0.034080077469318855 0.031304214121345465 0.019955048371893106 0.005750793867906627 1.1769029745658965e-11 7.355982752889824e-06 1.1626403054012836e-05 4.237023251897774e-09 7.942464911618296e-13 1.0325731942547429e-16 1.0764543137427307e-20 2.0724522222468276e-22 2.0234021812727593e-18 4.714736946240352e-14 7.477500866561709e-10 6.0794669781535335e-06 2.000355066770649e-05 1.9378497367332283e-05 1.9439019641081203e-05 2.1628930602016017e-05 3.104189924700106e-05 6.261951310039047e-05 0.0001594809202376786 0.00046046359106511795 0.00160755688418667 2.7645288312906248e-05 1.0295124821216596e-08 2.0185522636687923e-12 2.714543606996652e-16 2.8099904984839206e-20 1.3948543492677072e-23 2.25854305604044e-19 9.391631297398431e-15 2.876689289917531e-10 5.216680655137284e-06 0.011721908751382067 0.011705732259905684 0.012608394987682337 0.01570880568014144 0.022205990444032184 0.030661541503443444 0.03558291179512346 0.0317435826826015 0.01948920112174753 0.005229480062904404 1.1808350465120527e-11 7.380166120804705e-06 1.2775955435320362e-05 4.983847493004297e-09 9.70068923696753e-13 1.2910038899899004e-16 1.9593725256436337e-18 1.474604129658722e-18 2.862285542957835e-18 4.3561430565892444e-14 7.173725052465986e-10 6.0796140475398615e-06 3.4231431107577776e-05 3.3324140020773135e-05 3.34944715176143e-05 3.6915979299597335e-05 5.0876970031113884e-05 9.64460667623218e-05 0.00023417599407131356 0.000658013100245472 0.0022399204600597722 2.9777490465133567e-05 1.1387239444894706e-08 2.2767615607570616e-12 3.0910140753397755e-16 3.2025158743652434e-19 2.5080198295028857e-19 4.089192790400342e-19 8.360071142269269e-15 2.6779267183425426e-10 5.159392715405926e-06 0.014909492443477416 0.014883724489746796 0.015802589034685777 0.018880426027840867 0.025156504663039495 0.03308934278453486 0.03720486433649287 0.03231171130170259 0.019136687506727763 0.004752415217242736 1.1846870457012014e-11 7.401849775223285e-06 1.4296888453991048e-05 5.889010369794443e-09 1.2410889672017983e-12 5.0960127136105076e-14 4.290941578654241e-14 3.492024070449072e-14 2.7105895858458485e-14 5.946759562682411e-14 6.845507542178496e-10 6.0795890974004305e-06 6.187758476589169e-05 6.040647491449953e-05 6.043526944527472e-05 6.511759603120628e-05 8.435246909005861e-05 0.0001456665801542832 0.0003268873975170909 0.0008785454247336916 0.0029121765403301953 3.278497649770153e-05 1.2871581231141783e-08 2.6355961001285627e-12 1.2993647800294224e-14 1.1486756111262413e-14 1.034424371051049e-14 9.21772107867496e-15 1.54395729923926e-14 2.4677023032860376e-10 5.081032451337438e-06 0.018971647376724573 0.01890582064343864 0.01972268380496786 0.022571785223359755 0.028379579377412457 0.03561897784288448 0.03892804683791597 0.03306827273012732 0.01895846473030006 0.004319151429196473 1.1911866808145177e-11 7.443357981636802e-06 1.5083987916709118e-05 7.792676034844647e-09 7.874618674039708e-10 7.301636408267788e-10 6.64932343740307e-10 5.908214815234448e-10 5.07164186607884e-10 4.1163691539953376e-10 9.461605875052019e-10 6.079363000489521e-06 0.00012011461862483884 0.00011746938941206804 0.00011617736263568133 0.00012086934588689676 0.0001439507714759239 0.00021837184574017093 0.0004337714645755795 0.001077585216051738 0.0035156110032003923 3.4742144655680955e-05 1.5111507536935752e-08 3.75278784264792e-10 3.538602677239379e-10 3.343340832220597e-10 3.138700572790248e-10 2.924364169458786e-10 2.697506588926085e-10 4.688641967579968e-10 4.9695838357356885e-06 0.02426397326432404 0.024070110689994158 0.024547096621004977 0.026833351268440563 0.03184402330773888 0.03820243939602518 0.0407577306930952 0.034092254444282745 0.019029721346258167 0.003929490729191262 1.1304758836648957e-11 6.963017613407355e-06 3.387431909353441e-05 5.507803128187516e-06 5.494551675250242e-06 5.494461626209273e-06 5.492842239044357e-06 5.481412363985603e-06 5.428884817689717e-06 5.245842762075279e-06 4.6982390216696415e-06 8.836190875824847e-06 0.00025613803447232 0.0002502981678813456 0.00024560965029759446 0.00024381889739483306 0.0002628091171302945 0.00033843686720894247 0.0005620071908753772 0.0012159074084978668 0.0035948705751340433 6.143157663159504e-05 5.762687743573097e-06 5.722490960941324e-06 5.698682013799623e-06 5.666314845093747e-06 5.622651690524488e-06 5.563677509444634e-06 5.482780781693784e-06 5.3673005651097895e-06 9.971315190516123e-06 0.0316960608264298 0.031077867512003293 0.030607382870318774 0.031819890298587575 0.03560698171512358 0.04085280653489971 0.04271996950082232 0.03546921751177202 0.019438200591423108 0.0035832396183708487 1.0354462126443133e-11 6.337416912464104e-06 6.421251001282929e-06 6.747127537737771e-06 8.411880809129465e-06 2.3800660266952707e-05 0.00015365614201954362 0.0008600651504342156 0.0034213651849264288 0.010057310932910834 0.02259274457409476 0.03187876778129149 0.0006330347780873134 0.0006562053374183104 0.0006090225529227646 0.000567030766477697 0.0005485475706750135 0.0005911960643048937 0.0007734518909551725 0.001319300904387591 0.0034174173251361284 0.00387104718305094 0.0046810624097588386 0.005843379244032836 0.0073977731754616615 0.009421556797689622 0.012017186511324036 0.01532599661610573 0.019562279871587217 0.025113088298771014 0.03296970742648973 0.041320961689470616 0.040272674694485054 0.0384040849571998 0.03788774497722128 0.03990061971855763 0.04369142306112061 0.044866633614621454 0.03727595547636419 0.02028140283308654 0.003279768003818958 7.575009747096007e-12 4.439936332032477e-06 5.736016978579304e-06 6.362398771218868e-06 8.719654161335754e-06 2.879991381196784e-05 0.00018620305866733647 0.0009832095678773678 0.0036884494515770257 0.010278058866354132 0.021994023607984386 0.03154663889808049 0.013541919924038283 0.004969846985302902 0.0028209099998911893 0.0019574082576458767 0.001546032089014321 0.001354433934097958 0.001363584039605566 0.0016800957853266038 0.0028454949400259057 0.003769719980029218 0.004645946170541707 0.005852873241304204 0.007437966994277965 0.009489566981221196 0.012109891975937988 0.015434360726225182 0.01965677578954513 0.025098086026218512 0.0325085966365015 0.041490149