# vtk DataFile Version 3.0
vtk output
ASCII
DATASET RECTILINEAR_GRID
DIMENSIONS 41 41 1
X_COORDINATES 41 double
0 1 2 3 4 5 6 7 8 9 10 11 12 13 14 15 16 17 18 19 20 21 22 23 24 25 26 27 28 29 30 31 32 33 34 35 36 37 38 39 40 
Y_COORDINATES 41 double
0 1 2 3 4 5 6 7 8 9 10 11 12 13 14 15 16 17 18 19 20 21 22 23 24 25 26 27 28 29 30 31 32 33 34 35 36 37 38 39 40 
Z_COORDINATES 1 double
0
POINT_DATA 1681
FIELD FieldData 1
Concentracao 1 1681 double
0.0 4.6125574830036135e-23 6.577764188303e-17 1.0771251794297696e-16 1.493555331004411e-16 1.897387203948678e-16 2.282240113022537e-16 2.650019242709036e-16 3.0039923048166343e-16 3.354214312295651e-16 3.6931036781855496e-16 4.0627030457286213e-16 3.6738903437422605e-16 2.5632286275574197e-16 1.9808129871876749e-16 1.5700133564095014e-16 1.295606102427449e-16 1.1091991235081492e-16 9.952845640414455e-17 9.904230630755545e-17 3.0130349689161045e-16 4.7387211163638374e-12 4.7132896428455895e-12 4.708136882849744e-12 4.708785757267069e-12 4.70929043599175e-12 4.709554372347669e-12 4.709616577710882e-12 4.702354401450011e-12 4.699866683488119e-12 4.362932375261333e-12 3.935150986437015e-12 2.7080366409023998e-12 2.0425029297467104e-12 1.5538695499419573e-12 1.2610210335163048e-12 2.917472799511883e-12 3.349188983574976e-11 2.6548158105768814e-10 1.1463451178246976e-09 2.3079780419489195e-09 4.19353994825591e-23 5.76570144070654e-17 8.222211813142938e-11 1.3464075514123914e-10 1.8669456573108448e-10 2.371735881257903e-10 2.8528024235182845e-10 3.312526682810747e-10 3.7549932732833614e-10 4.1927712445838766e-10 4.616383290835615e-10 5.078382799951052e-10 4.5923665903123137e-10 3.204038334158376e-10 2.476018214797581e-10 1.9625182655252333e-10 1.6195089231009959e-10 1.3865000066573613e-10 1.244106700336371e-10 1.238029818442824e-10 3.766296721671277e-10 5.9234061072125885e-06 5.8916167668466294e-06 5.885175799284736e-06 5.885986905369594e-06 5.8866177542801235e-06 5.886947674988959e-06 5.887025429140754e-06 5.877947700577696e-06 5.874838053656121e-06 5.453669830769696e-06 4.918942668197255e-06 3.3850485091646406e-06 2.553130704686318e-06 1.9423384849892573e-06 1.576277552872665e-06 3.6468439168626535e-06 4.1864895786577034e-05 0.0003318522418036912 0.0014329325436259898 0.0028849748604141915 5.55285142078827e-17 8.222395485513761e-11 0.00014241314175023257 7.456402128866392e-05 6.724377265640136e-05 6.356315138042258e-05 6.0225995749440544e-05 5.749661096609504e-05 5.5348996086045385e-05 5.556616276811375e-05 5.3410480758221765e-05 0.0001051285825235171 3.1069983228681914e-09 1.9929076752255676e-09 1.252590691138035e-09 8.842961460013368e-10 6.606870003175362e-10 5.219440619954837e-10 4.4150915965436707e-10 4.0042502050021625e-10 2.187131240494178e-09 4.5606110100203216e-05 4.245514016260283e-06 4.261843461697281e-06 6.6974970278129485e-06 8.083458303271758e-06 9.158683739777838e-06 1.0064150118585742e-05 1.126094684094598e-05 1.1881114413688815e-05 2.6543105865310936e-05 4.9209331345996204e-06 4.287906521596249e-06 3.5068035676390855e-06 2.901963775284553e-06 2.630761938355472e-06 9.142336271201946e-06 0.00010478688122668354 0.0007485782278733955 0.0029604111019126047 0.005551515770067453 1.361443443506096e-16 1.3937830085934293e-10 8.078074639030313e-05 4.899204599911597e-07 2.1072894738826744e-07 1.883504046710228e-07 1.6918298156540534e-07 1.5321853116760734e-07 1.4128271971798207e-07 1.3677033828194178e-07 1.3914387455894207e-07 5.49457990350635e-06 3.268716700147247e-09 2.339721342071165e-09 1.7637625193267864e-09 1.3459642567104079e-09 1.0586949556981709e-09 8.565598818742439e-10 7.192283925572458e-10 6.441195897079861e-10 4.016891914049823e-09 3.148422194212794e-05 3.8946278173736165e-08 1.2367630654471512e-09 2.448991157009928e-09 3.4540956068863792e-09 4.294877646515266e-09 5.07441189620962e-09 6.0222493027802005e-09 8.003583840192856e-09 4.301367899639021e-06 4.926049057822723e-06 4.455947663581471e-06 3.931966780469777e-06 3.436175089454302e-06 3.763931075138713e-06 2.0592136818207844e-05 0.00021308158550181525 0.0013174907612552844 0.004658223803874918 0.008032214977704592 2.24300011600267e-16 1.9597063095434217e-10 7.30231646924196e-05 2.2870596192731425e-07 6.763760761280087e-10 2.7771983090162983e-10 2.3569260355262104e-10 2.0130432242698344e-10 1.747617251794929e-10 1.6014294869845086e-10 1.4251421400287008e-09 5.254897128598255e-06 3.4691269364475136e-09 2.5802516980775857e-09 2.0428606213358144e-09 1.6473391837330604e-09 1.3432543664002273e-09 1.1095768782243482e-09 9.318860918754884e-10 8.038072883882672e-10 6.618809858014291e-09 3.160013159330534e-05 3.728954989754802e-08 2.0501911952570904e-11 5.14087736445633e-13 7.814072255162444e-13 1.0332728231956522e-12 1.27290525707074e-12 1.6444845705140268e-12 8.178183932821614e-10 4.287870024166412e-06 4.949018809883624e-06 4.5763908321665e-06 4.179387596775361e-06 3.9431932951125145e-06 6.481678701174552e-06 4.871768639066984e-05 0.00041007831327509876 0.0021184236191296737 0.006575064656196229 0.010338209551148109 3.127119556360069e-16 2.5081729634808583e-10 6.904917910812985e-05 2.045446472691002e-07 3.014463564234885e-10 5.661461652491587e-13 2.1749254818417142e-13 1.7327782371947117e-13 1.3919752058499953e-13 2.6740702346848556e-13 1.2605288644463573e-09 5.256476456175494e-06 3.6878732686298335e-09 2.760368269199515e-09 2.24173987978898e-09 1.8572087386969986e-09 1.5501780806459212e-09 1.2983646085079843e-09 1.089956472337983e-09 9.181815715665944e-10 1.0222306163756086e-08 3.083709014075549e-05 3.6184193038922316e-08 1.9808500371858757e-11 6.917643333810063e-15 1.2901333223813347e-16 1.7200109664645475e-16 2.1810616310651609e-16 7.160011135784785e-14 7.723246580378098e-10 4.287962905573737e-06 5.161357499929902e-06 4.905306166893014e-06 4.808130444006283e-06 5.794824013962852e-06 1.7111083354221423e-05 0.00012126132932590996 0.0007669746048695836 0.003233452603631697 0.008719490279517003 0.012461416027576633 3.9880815951643305e-16 3.030807492893775e-10 6.54277493547767e-05 1.8373962709603744e-07 2.558931804462585e-10 2.360244823728061e-13 3.1226242219774516e-16 1.1044932419813473e-16 9.220249616443692e-17 1.4715309960162967e-13 1.243311127128099e-09 5.258514967355779e-06 3.918225658015344e-09 2.9148684264385814e-09 2.3963762284534828e-09 2.0173385849568706e-09 1.7081483091065892e-09 1.443810248340325e-09 1.2118303793304153e-09 1.0056176879662997e-09 1.514818459928672e-08 3.048590981709132e-05 3.506227575268044e-08 1.9057672340990984e-11 6.550949848079796e-15 1.635877163328967e-18 2.3026694086720714e-20 3.781441012856111e-18 6.277124735145059e-14 7.214124428840776e-10 4.28806850339145e-06 8.062347484637654e-06 8.485389823124212e-06 1.0431938012550116e-05 1.845078487348405e-05 6.074339841994238e-05 0.0003007248753877172 0.0013827020109562515 0.004722609468339616 0.01105123326201218 0.014378079880000913 4.818268592305268e-16 3.5302525841358334e-10 6.246375313173405e-05 1.6640445340873552e-07 2.1856120768201106e-10 1.8807355373891464e-13 1.1982791692376725e-16 1.1799976879295216e-19 1.110064585564071e-17 1.4241140848934591e-13 1.2234024920369848e-09 5.2604376531778885e-06 4.15039841031652e-09 3.057829827974564e-09 2.529365160735524e-09 2.1503161326158148e-09 1.8381210015679696e-09 1.5635321182669187e-09 1.3125315913232576e-09 1.078406230176079e-09 2.160354207604027e-08 3.0289403238773333e-05 3.417588397664353e-08 1.827533958088635e-11 6.174444897747459e-15 1.4939840832422573e-18 6.087134740033478e-22 3.0268577733640465e-18 5.380087369543719e-14 6.634531297540816e-10 4.287770299727262e-06 3.679772906690154e-05 4.119028200316567e-05 5.333805487654059e-05 8.84537086393521e-05 0.0002129272842527535 0.0006997293676197998 0.0023630012666445697 0.006594635580660241 0.013483267932129478 0.01605437805164228 5.618026345108729e-16 4.0109588688111083e-10 6.0131761897614806e-05 1.534443135496989e-07 1.8974666451175217e-10 1.5108635886542994e-13 1.0051019411402231e-16 1.2487915526605925e-17 2.2234622189347043e-17 1.371796573374283e-13 1.2006412635880489e-09 5.262348495099246e-06 4.377430981538534e-09 3.2027094301450607e-09 2.657111731485156e-09 2.2734185448196418e-09 1.956437478646154e-09 1.672355103706379e-09 1.404829071332487e-09 1.146350280062862e-09 2.944976880814968e-08 3.0366260616211233e-05 3.381066741534715e-08 1.771191774879282e-11 5.825463500503277e-15 6.110876113358916e-18 4.4016085611499045e-18 6.384611107746478e-18 4.459829697098564e-14 5.974446851794635e-10 4.284484205504978e-06 0.00022713469726092034 0.0002429280140943258 0.0002785507633303962 0.0003705020852302737 0.0006404929212649714 0.0014732312457905327 0.0037811307302191926 0.008790187764424093 0.015899371189063732 0.017455155245900966 6.399092808643955e-16 4.486837054950637e-10 6.0387682541879755e-05 1.4859386412073605e-07 1.7394063366397766e-10 2.961572218442343e-13 1.6543207447043785e-13 1.6010737876467376e-13 1.542271901373643e-13 2.789435464840461e-13 1.1747352214169563e-09 5.264275056391849e-06 4.5935131676508936e-09 3.3660861822397866e-09 2.7973196070622967e-09 2.4031292152606943e-09 2.0781772096501098e-09 1.7840291089467169e-09 1.5012369591730861e-09 1.2191690477018732e-09 3.7699059072734654e-08 3.129542762276943e-05 3.449546613099696e-08 1.778491473047556e-11 8.89676335952098e-14 7.952406407839325e-14 7.546818112579725e-14 7.123623915353259e-14 1.0193390942311299e-13 5.198482295074528e-10 4.263762324059775e-06 0.0011505850514508006 0.001153156445941426 0.0011508972545940066 0.0012426306568525925 0.0016273508588412183 0.0027852611982607787 0.005647191327170979 0.011193511494090496 0.018182142553898238 0.018553682517770443 7.16030072600503e-16 4.947311686342035e-10 5.805283565538223e-05 1.5124062889683414e-07 1.595438954249148e-09 1.4161064071090254e-09 1.3967805187640729e-09 1.374430039508736e-09 1.3488769867663058e-09 1.3197606114657754e-09 2.4293174637989865e-09 5.267518530045687e-06 4.7954385448278374e-09 3.571563977891822e-09 2.975084138108251e-09 2.559848039712802e-09 2.2199332234753324e-09 1.9131176882780382e-09 1.615694099505086e-09 1.312227013539921e-09 4.4852898826229545e-08 3.139692113072782e-05 3.6867605448655246e-08 9.561369112268442e-10 9.183759731728868e-10 8.964193590275926e-10 8.727028309852895e-10 8.471858355025544e-10 8.196259959345988e-10 1.2085125416976953e-09 4.148384485120139e-06 0.00479382462593844 0.004436067713106024 0.003880520222108428 0.003466480800453703 0.003592433077056841 0.0047880470544144575 0.007916826686817539 0.013670152897764246 0.020240418529215706 0.019339811664748074 7.976720978630373e-16 5.467571327602323e-10 0.00011601698832319181 6.163838395580476e-06 5.899599169810258e-06 5.9013784452660865e-06 5.903668723832362e-06 5.905828900243922e-06 5.907975794029768e-06 5.910140343419441e-06 5.913494795732731e-06 1.1181148865268999e-05 5.169114431947467e-09 3.9254503600742484e-09 3.250261132468474e-09 2.7808079341599216e-09 2.406471075929952e-09 2.0775701988968057e-09 1.7661489369324966e-09 1.444292806240485e-09 4.322943356146733e-08 5.26556612637961e-05 5.160824987411842e-06 5.110518233386135e-06 5.110960541918358e-06 5.111423131086653e-06 5.1118094015959584e-06 5.112169078287792e-06 5.112517709549691e-06 5.11314493846727e-06 8.256355390911853e-06 0.01651068372683756 0.014351678545757153 0.010621970178383996 0.008127252149549189 0.007004970345150955 0.00760197515005406 0.01052563868464891 0.01610939081863979 0.022026004630467673 0.019824192823656002 7.940309007904161e-16 4.944289744833006e-10 3.4163591500573026e-09 3.59785567249272e-09 3.8228413537667e-09 4.068426128021639e-09 4.3270406463847155e-09 4.587698517940937e-09 4.8425851282354165e-09 5.085177287325971e-09 5.311863949765519e-09 5.68574026429156e-09 5.565485524710094e-09 4.590535347997179e-09 3.8082221042520175e-09 3.2015705604753395e-09 2.7277495994670017e-09 2.3364311443485006e-09 1.9860296843343625e-09 1.6653217326594846e-09 3.784159852905257e-08 4.536992913955667e-08 5.8574206056227005e-08 8.151635572500354e-08 1.202458951941718e-07 1.867312874738242e-07 3.0441083695001365e-07 5.223229243623637e-07 9.524025113198555e-07 1.8840404667049882e-06 4.1880168169369315e-06 1.1653238940784688e-05 0.006025504115163793 0.00955548975903153 0.010499055571417224 0.0102843086590983 0.010742907365362788 0.013295258075291552 0.018428277061952308 0.023532856368775893 0.020036599353943068 6.480179370857479e-16 3.449565374017562e-10 2.188428307856323e-09 2.571570834005373e-09 2.8380548464389875e-09 3.0381320588773792e-09 3.2101183589563353e-09 3.3695148818513763e-09 3.531242175146822e-09 3.7137796737459548e-09 3.9435110358096646e-09 4.329466775682028e-09 4.853349214980154e-09 4.911274213134949e-09 4.505215105912093e-09 3.937761636348042e-09 3.37415463383708e-09 2.8694767993027923e-09 2.43212255933624e-09 2.037362908059333e-09 2.1879489813023113e-08 3.813314104536735e-08 5.236316477316877e-08 7.542499475700222e-08 1.1343261072683168e-07 1.7838578882394677e-07 2.932190345199451e-07 5.057334688569583e-07 9.245833586912585e-07 1.8310356432241981e-06 4.059905040646743e-06 1.201798244990079e-05 0.0017384697334666519 0.005857766222711564 0.009568858232521611 0.011750604324725729 0.013267471136335966 0.01587001757688106 0.020540546450551016 0.024781114705114828 0.020019806038290427 4.987293390773989e-16 2.665761513762215e-10 1.373227021934008e-09 1.936692623632599e-09 2.244803381368195e-09 2.464699020593031e-09 2.635942530651599e-09 2.7834309987044983e-09 2.9253047403696263e-09 3.0812337499627865e-09 3.279209026387281e-09 3.583309560154322e-09 4.114920623369624e-09 4.674411880944629e-09 4.938293042845334e-09 4.831346503875564e-09 4.464432021728028e-09 3.974610833437898e-09 3.46070190158621e-09 2.9908430282330207e-09 1.4029390443668853e-08 2.8129620947764553e-08 4.5197020337387666e-08 6.909580591078387e-08 1.0764998169651759e-07 1.7269604806589171e-07 2.8686144375413806e-07 4.962178082849612e-07 9.040142405273821e-07 1.7719907538552445e-06 3.905980887843218e-06 1.0875164103117674e-05 0.0006750779519280772 0.0032650946305998224 0.007382404474897946 0.011381722021237963 0.014574364439183975 0.017870160921340205 0.022345193876180277 0.02579754034831989 0.01982161983235547 3.805959240093074e-16 2.1129126322045618e-10 9.681173949280796e-10 1.4765631737273496e-09 1.8087914959781083e-09 2.040378110049609e-09 2.217257762692188e-09 2.3642977098199903e-09 2.500568146813828e-09 2.644332590087651e-09 2.818291631634465e-09 3.0631262933619393e-09 3.492953348760452e-09 4.176091451673895e-09 4.956440922175509e-09 5.5745001437408465e-09 5.8747411373344105e-09 5.857944334688868e-09 5.626350863958387e-09 5.324890024979644e-09 1.1389799533426157e-08 2.2824590265503095e-08 3.949564550007909e-08 6.463525360182035e-08 1.0492772635325059e-07 1.7262547559850705e-07 2.9023764412818453e-07 5.022477207332216e-07 9.047434554299755e-07 1.7346727007118704e-06 3.6952844213794777e-06 9.69590427534595e-06 0.00029340025919443553 0.0018209922493584146 0.005285047908152786 0.009990035582713153 0.014677439599745037 0.01908916641094191 0.023755647398992562 0.026604272221137804 0.019487926243467846 3.0146504188681926e-16 1.743618683387355e-10 7.224030853942363e-10 1.160418602117509e-09 1.4738521738799148e-09 1.7019421488477542e-09 1.876196318134732e-09 2.0196711385462677e-09 2.15038194102385e-09 2.2850014281300414e-09 2.4419488567470007e-09 2.648541180417433e-09 2.9884250565366375e-09 3.6249071306080066e-09 4.65625032950909e-09 5.972231263592674e-09 7.318126294882758e-09 8.481898441507558e-09 9.419693587429403e-09 1.028085599494407e-08 1.489803379395788e-08 2.5040771726019106e-08 4.2370625492422523e-08 7.070978112761283e-08 1.1765208887549062e-07 1.968255907986211e-07 3.32368049627315e-07 5.684118520664556e-07 9.929813997828279e-07 1.8103570024265986e-06 3.6084602784343144e-06 8.692151226233041e-06 0.00014139364576233108 0.001035165712166664 0.0036771338996002927 0.008300259654637541 0.013940339431473991 0.019544231168555363 0.02473659969946008 0.02721843138752054 0.019058219527943787 2.507404793430638e-16 1.492754375989171e-10 5.70082031573936e-10 9.38104074086967e-10 1.2166228509426405e-09 1.424571626235614e-09 1.584868318589589e-09 1.716884790951167e-09 1.836950697953425e-09 1.9602452973302823e-09 2.1028969385169134e-09 2.2847792269824626e-09 2.56395317933758e-09 3.106492146882042e-09 4.189694892794115e-09 6.0142420572011535e-09 8.559014695934323e-09 1.1644762388096684e-08 1.5177039587820844e-08 1.9393535124055333e-08 2.7096286247965886e-08 4.1594127580727535e-08 6.718849158435379e-08 1.1105360000410794e-07 1.85564472573254e-07 3.1100402012779e-07 5.188224679212117e-07 8.562190060500233e-07 1.398662496571176e-06 2.301287943113259e-06 4.010340752771478e-06 8.317841136867357e-06 7.542497236380749e-05 0.000607859546690017 0.002548970798853592 0.006718674565441294 0.01277611207255198 0.01940400360141111 0.025315997224636105 0.027656967494482643 0.018563780298120735 2.2049687036305398e-16 1.339449750599631e-10 4.818365442838996e-10 7.87135138347156e-10 1.0211157990906266e-09 1.195135643016449e-09 1.3293672264351793e-09 1.4403237076110458e-09 1.5420618024573508e-09 1.6483810367904699e-09 1.7746861322413577e-09 1.9408472101744236e-09 2.1805214357459545e-09 2.644898657203161e-09 3.6736657786418782e-09 5.809433387446428e-09 9.547176277819868e-09 1.52390714416947e-08 2.3331190646688966e-08 3.4965183044643247e-08 5.4136484454687535e-08 8.811289352280619e-08 1.48744570650133e-07 2.555229527916835e-07 4.394309184315055e-07 7.458152001882158e-07 1.2322521293629463e-06 1.9556976063717502e-06 2.9509799849368265e-06 4.244754125864058e-06 6.051532457421819e-06 9.626210095637804e-06 4.6599315953434916e-05 0.0003724403153568955 0.001794380623014613 0.005410485297337507 0.011506993498533657 0.018892332149042415 0.025571796897167955 0.027940702760212724 0.018027714908214077 2.144419340413317e-16 1.3329100070964465e-10 4.3676577525645337e-10 7.045926175746971e-10 8.802437295951083e-10 1.0061158466065018e-09 1.1023806781814885e-09 1.1825491191653597e-09 1.2574093830424373e-09 1.337668162232727e-09 1.4402687687899187e-09 1.5859460540973863e-09 1.8282557306571903e-09 2.221920428640941e-09 3.1892349529754788e-09 5.5144899620402926e-09 1.0437197975624215e-08 1.950218885837123e-08 3.502279634721497e-08 6.180514924727692e-08 1.1204289792527198e-07 2.1150624600170966e-07 4.0815073751346135e-07 7.75858446726445e-07 1.4219552539595878e-06 2.4943481459712893e-06 4.152692759031218e-06 6.483254808629423e-06 9.360664998164874e-06 1.2239164483120067e-05 1.453467966888569e-05 1.6779455267061165e-05 3.684141449294538e-05 0.00024743785949366464 0.001307108703328217 0.0044140313099416215 0.010338267034448349 0.018220239528805506 0.025606765864120497 0.0280948126007601 0.017466061114456248 6.36618718792071e-16 4.3423636758661537e-10 2.5698452010417276e-09 4.715366207046084e-09 7.784698612362553e-09 1.203764107415314e-08 1.7852837540914478e-08 2.5475005252217275e-08 3.474265925319816e-08 4.4496216635392044e-08 5.296958290193164e-08 5.1186023623247216e-08 4.4886973533661506e-08 2.5999399676341943e-08 1.6423506149995837e-08 1.278495322239679e-08 1.5745530069368752e-08 2.7635919040854643e-08 5.4504722243081014e-08 1.1231637757324423e-07 2.5855734153813e-07 7.022359609391595e-07 1.7633811982427964e-06 3.797480455032268e-06 7.3737488815587995e-06 1.3222975947344657e-05 2.207374415264966e-05 3.425207599693077e-05 4.879651365722486e-05 6.329308182107935e-05 6.664904624637617e-05 6.360846774759838e-05 5.7810022896172165e-05 0.00019238061012580667 0.0010156737959984077 0.0037044789864978554 0.009379151638432526 0.01755064349440169 0.025523392852989296 0.028146145279971547 0.016889323334019324 9.63765124877218e-12 7.330132328086512e-06 5.6437027243721305e-05 3.8448472281197144e-05 3.8422024131474765e-05 3.738717820006904e-05 3.6882574355212645e-05 3.65807302002892e-05 3.6614173066266876e-05 3.76673943140777e-05 3.7708175710642825e-05 6.29240258907497e-05 5.36842990703605e-08 4.515668293658257e-08 3.315424167083491e-08 2.634211671875369e-08 2.7464261930661252e-08 4.329970727144997e-08 8.94091760352038e-08 2.12689384834566e-07 7.036558522975416e-07 2.373028020411106e-05 1.7905573124432155e-05 2.0653442125557092e-05 2.2930194478051216e-05 2.487538724675322e-05 2.6788456337676134e-05 2.8809308960876263e-05 3.164278650392806e-05 3.340179347017556e-05 5.8268077786313515e-05 7.471212031940576e-05 7.713394173528632e-05 0.00018061152614032712 0.0008510165771582268 0.003240057458293091 0.008664506082172091 0.01698848685890469 0.025404668786015164 0.028119297273710746 0.01630402965457041 1.1280183982691242e-11 7.2933335150553085e-06 5.387738666344979e-06 4.769969767310336e-08 4.5424324007613795e-08 4.3949447209171364e-08 4.249416743568036e-08 4.134603868097045e-08 4.0836581944589225e-08 4.158769059822068e-08 4.43374760766255e-08 6.137147677885807e-06 6.933387563493575e-08 6.196018974064793e-08 5.334483579532746e-08 4.6003901858989166e-08 4.7437943762831774e-08 7.113967967034319e-08 1.5202780758047428e-07 4.1151734831895553e-07 1.7700345053952951e-06 1.8293448687413957e-05 1.5555644836719222e-08 1.0282865124589039e-08 1.236648724089691e-08 1.4174438002817897e-08 1.5928249755236528e-08 1.7862272765954843e-08 2.0405657683918364e-08 2.408496068410335e-08 5.425266557248415e-06 9.623868522814995e-05 9.96142486290988e-05 0.00019000494035620406 0.0007797939419418951 0.002962509718213416 0.008187660718196632 0.016581777546199553 0.025304135865146463 0.028033415967694285 0.01571415845649598 1.1583493211446594e-11 7.285909700422117e-06 5.40957973460529e-06 1.5721543251537525e-09 2.503319016676979e-11 2.410348561351472e-11 2.3138574922588117e-11 2.2148495691640086e-11 2.142954509375595e-11 2.147645896562496e-11 1.138861416204497e-09 6.076903653217181e-06 9.652422941649734e-08 8.927882283186769e-08 8.161710248523142e-08 7.558293916460232e-08 8.000655392669799e-08 1.1890697448120763e-07 2.625285014895584e-07 7.836747706510682e-07 3.8145618216896637e-06 2.1193571839470614e-05 1.0572795733718702e-08 5.248497582562372e-12 3.3593433140605796e-12 4.056770423569588e-12 4.735407144872086e-12 5.467034172533329e-12 6.4478817859877434e-12 6.069788203969604e-10 5.388767120548424e-06 0.00013025452226876014 0.00013444240879583442 0.00022128819927076678 0.0007685613796735513 0.002829350582783789 0.007911484563434367 0.016334724752160953 0.025243988620488815 0.027901171556235258 0.015122349497014884 1.1644459193175154e-11 7.2870310021066765e-06 8.501161390715957e-06 3.1149604227510406e-09 6.548383615297171e-13 8.437739183352129e-15 7.968177449087763e-15 7.496411003381369e-15 7.060539934455158e-15 1.0620876368848458e-13 1.0936796645372259e-09 6.07743004968049e-06 1.424245723569449e-07 1.343107105186158e-07 1.2722893551480136e-07 1.2293241499721395e-07 1.3385211105576974e-07 2.0003806134973193e-07 4.530274496755307e-07 1.4379949720650301e-06 7.410345935847739e-06 2.360676425099269e-05 1.2761564265188781e-08 3.4743445115237614e-12 1.261064195409348e-15 7.807702095903837e-16 9.36563327049545e-16 1.0993888156858804e-15 3.4532788704230376e-14 5.821382643115119e-10 5.388328163920285e-06 0.00018116690289268376 0.0001858987225862394 0.0002739355831916304 0.0008053857969117463 0.002799562289951121 0.007790466449346389 0.016218717154380377 0.025220019606434024 0.027729963661741807 0.01453089583683345 1.165751110782249e-11 7.287831201915964e-06 1.0260372757114209e-05 4.3935281167508934e-09 9.95946461863865e-13 1.6466165288399774e-16 1.9944717368835554e-18 1.8171425442002646e-18 7.327343483755194e-18 9.485713666580153e-14 1.0675712409076907e-09 6.077980804445898e-06 2.212182977071516e-07 2.112678837753687e-07 2.0417023108283815e-07 2.0243489725842006e-07 2.2459357357185033e-07 3.366997601931248e-07 7.707547661867322e-07 2.524780392511733e-06 1.3293170805370674e-05 2.568002772340219e-05 1.4672763428203007e-08 4.210061537628854e-12 8.122182953938439e-16 2.341558671035e-19 1.395759599549611e-19 1.3759741576842073e-18 3.1298859564029344e-14 5.635793683058164e-10 5.387614373742916e-06 0.00025645859416851234 0.0002615404215653627 0.00035331353424723224 0.0008832078699549228 0.0028445929341115923 0.0077732219102436 0.016185281893265627 0.025208739736035924 0.027524460943817455 0.013942341207898976 1.1660619339304486e-11 7.2882277663903e-06 1.1625180571309032e-05 5.463168005494394e-09 1.3170455735462848e-12 2.1967317571744027e-16 2.945084254015523e-20 7.490215830853353e-22 5.259423654511489e-18 9.002665805367699e-14 1.0393701760525716e-09 6.0784406892725115e-06 3.606801271664599e-07 3.4731580123445864e-07 3.391915338680258e-07 3.4051983188342683e-07 3.8001877042857746e-07 5.636617676772269e-07 1.2763404552891485e-06 4.206940557249096e-06 2.2197030325947487e-05 2.7728776302791265e-05 1.6538187656999414e-08 4.9308213461010165e-12 9.778547227605429e-16 1.461079801752126e-19 1.0300312985120568e-22 1.1056049535381395e-18 2.931888212548521e-14 5.439824575302159e-10 5.386410156041871e-06 0.0003678117360954844 0.00037273691895416654 0.00046896178625642786 0.0010025338047870112 0.0029415083048464122 0.007808494322833049 0.01617383001535077 0.02517487300689401 0.027289243564891316 0.01336020181033312 1.1661370807419763e-11 7.288306972525584e-06 1.2774560754829046e-05 6.455001465709769e-09 1.6226013983049663e-12 2.786722653729995e-16 4.907418191619447e-18 3.931803212517676e-18 7.876150391379207e-18 8.498646997163828e-14 1.0090281665706867e-09 6.078868927466293e-06 6.18917474008208e-07 5.990711398419748e-07 5.867635688502791e-07 5.894888451497659e-07 6.512983880004636e-07 9.342078557788242e-07 2.0317162767939334e-06 6.574492556319805e-06 3.445084603758887e-05 2.9909534737508286e-05 1.860919856820001e-08 5.714037472649933e-12 1.1526259969172443e-15 1.5025022875364803e-18 1.2139591916831216e-18 2.0994219255586586e-18 2.7304253887199128e-14 5.232466759188746e-10 5.384484434326062e-06 0.000534404709523276 0.00053788752729376 0.000636194677480764 0.0011686435179569122 0.0030717024015963924 0.007844728794061718 0.01611725470996423 0.02507642483070178 0.027030352184717794 0.012788917590940748 1.1647096388666586e-11 7.277044319644855e-06 1.4295042566236986e-05 7.661830709009201e-09 2.0979622967574364e-12 9.249431116016659e-14 8.113450856646858e-14 6.958558941366022e-14 5.773098126255373e-14 1.2523172213054685e-13 9.762597293058939e-10 6.079284052706348e-06 1.1285514999289934e-06 1.0952103729248031e-06 1.0689803938662853e-06 1.0625354132115848e-06 1.1413836878612021e-06 1.5361145576934184e-06 3.080714616342409e-06 9.50606595729993e-06 4.9084928569679407e-05 3.2980848184788104e-05 2.135385352924187e-08 6.773817537152271e-12 3.761237439391073e-14 3.4145691389603796e-14 3.199896037692221e-14 2.981383281615415e-14 5.27936930233415e-14 5.010081108749327e-10 5.381358695119157e-06 0.0007907336517371227 0.000789243392844721 0.0008805896054904646 0.0013929180641828428 0.0032201945839138934 0.0078324962500763 0.01594660957345634 0.02486748840737042 0.026754826636692784 0.012234118492926957 1.1639356091614235e-11 7.273160688350141e-06 1.508295094765416e-05 1.0195106006368836e-08 1.051914636495278e-09 9.936431593674969e-10 9.284186301296422e-10 8.54165547295829e-10 7.695979717740261e-10 6.701642483664261e-10 1.48133007585327e-09 6.0800547471987324e-06 2.2323794514865193e-06 2.1687670469257257e-06 2.0954151204523225e-06 2.0393225423485125e-06 2.090880369386121e-06 2.553838889223037e-06 4.470952553433998e-06 1.2462246500071528e-05 6.367144957829861e-05 3.5000772688858905e-05 2.5374446101771905e-08 6.574470034312554e-10 6.308575405435516e-10 6.108875079161958e-10 5.89800181850959e-10 5.674868792988294e-10 5.43551601688744e-10 9.930882188064436e-10 5.376455512489581e-06 0.0012100641550303471 0.001191962918926745 0.0012504513054904208 0.0017000407163848999 0.0033819462970623685 0.007732348775198104 0.015597928278141984 0.02449915615528515 0.026467849313891543 0.0117021997761136 1.0960464742423667e-11 6.751702042247668e-06 3.3861443472885896e-05 5.510534811995965e-06 5.493282393805571e-06 5.493404507233779e-06 5.4935458948576215e-06 5.493192047302277e-06 5.489146647574956e-06 5.463394848347943e-06 5.3187630981980486e-06 1.0122512188766211e-05 4.961387982803567e-06 4.807659612360581e-06 4.619066121926726e-06 4.350975127807142e-06 4.1946096133309574e-06 4.518740558744776e-06 6.482692499477815e-06 1.4897536958063874e-05 6.696463266914487e-05 6.188502865480528e-05 5.83738501786424e-06 5.798477387594619e-06 5.798042922624097e-06 5.7973310082043046e-06 5.7961185201782815e-06 5.79417229365309e-06 5.7910052022751935e-06 5.785980266154616e-06 1.1138332451572155e-05 0.002015507028744365 0.00192968449759526 0.001860659859119335 0.0021555700985282722 0.0035830960004486 0.007533321226492704 0.015025302254219556 0.023920819831005732 0.026167710877489224 0.011200074322263963 9.943941497697673e-12 6.0896545984583475e-06 6.092064763500951e-06 6.098126029181708e-06 6.125274986758599e-06 6.378211451736345e-06 9.885361009217643e-06 4.501968871652564e-05 0.00027984458689373653 0.001428728041431526 0.00600428629985471 0.020964553883940334 1.3804865849447767e-05 1.4221964360510416e-05 1.2860260333836044e-05 1.1437072461064046e-05 1.0178216372707823e-05 9.55430221155113e-06 1.061755648972837e-05 1.756818479488288e-05 6.401149646460637e-05 7.528403467031528e-05 9.699798180482434e-05 0.00013132905756933216 0.0001827505576338699 0.00025886443892371474 0.0003715600715044258 0.0005403952108408875 0.0008006269007058101 0.001227326523413739 0.0020498502286663708 0.0034139764587061993 0.0033022618187933768 0.0029770191819202545 0.00293784304065081 0.003931634935210517 0.007288605148860107 0.0142234387420832 0.023085511700385506 0.025839327035166237 0.010734423214568101 7.149922747301574e-12 4.190614683767922e-06 5.308268632371711e-06 5.515945041128749e-06 5.663352887539658e-06 6.0578313034817335e-06 1.0388301339593567e-05 5.038055277818438e-05 0.00029926445949112856 0.0014314919876345306 0.0055523109634558485 0.018194677406535204 0.007644780741951019 0.002204616294459446 0.0008544097845036117 0.00036992939438055644 0.00017711704852822386 9.34276898852138e-05 5.646906011090219e-05 4.248491667844996e-05 6.14072826669552e-05 7.988199285564009e-05 0.00010248841513690169 0.00013776132858865788 0.000190020329