# vtk DataFile Version 3.0
vtk output
ASCII
DATASET RECTILINEAR_GRID
DIMENSIONS 41 41 1
X_COORDINATES 41 double
0 1 2 3 4 5 6 7 8 9 10 11 12 13 14 15 16 17 18 19 20 21 22 23 24 25 26 27 28 29 30 31 32 33 34 35 36 37 38 39 40 
Y_COORDINATES 41 double
0 1 2 3 4 5 6 7 8 9 10 11 12 13 14 15 16 17 18 19 20 21 22 23 24 25 26 27 28 29 30 31 32 33 34 35 36 37 38 39 40 
Z_COORDINATES 1 double
0
POINT_DATA 1681
FIELD FieldData 1
Concentracao 1 1681 double
0.0 4.606691577359786e-23 6.569399088562983e-17 1.0762438515406235e-16 1.492433624364153e-16 1.896030518170133e-16 2.280670280121546e-16 2.6482529320873144e-16 3.0020424487954784e-16 3.352072157268796e-16 3.690808345318039e-16 4.0597607681402323e-16 3.671229627247637e-16 2.5613722660326065e-16 1.9793784164413984e-16 1.5688762893857582e-16 1.2946677611490257e-16 1.108395776069028e-16 9.945637085168248e-17 9.8969615253868e-17 1.6275272896955947e-16 4.735875090275396e-12 4.710549771950444e-12 4.7053293447485245e-12 4.705870252524814e-12 4.706224680520608e-12 4.706281383674347e-12 4.706058355943141e-12 4.698410185760844e-12 4.695386872795255e-12 4.358140031625509e-12 3.930149851717488e-12 2.7036541424158924e-12 2.0371921205990035e-12 1.5433432123976697e-12 1.1828247692625456e-12 9.675280317654649e-13 3.6358440345769177e-12 5.111773261822144e-11 4.0764146126414166e-10 1.3190777371288224e-09 4.188206916218605e-23 5.758369052818413e-17 8.211755430102817e-11 1.3453058906696309e-10 1.8655435228888156e-10 2.370040022693098e-10 2.8508401308222126e-10 3.3103187927810117e-10 3.7525559513795835e-10 4.1900935486581523e-10 4.613514122455894e-10 5.07470495007392e-10 4.589040692042917e-10 3.201717880405787e-10 2.4742249999301646e-10 1.9610969306084873e-10 1.6183359955650162e-10 1.3854958215601294e-10 1.2432056302097395e-10 1.2371211795454257e-10 2.034410738291612e-10 5.919848571772205e-06 5.8881919254878275e-06 5.881666373858076e-06 5.882342521526271e-06 5.882785556875441e-06 5.882856435874317e-06 5.882577648374832e-06 5.8730174270250325e-06 5.8692382858107735e-06 5.447679396433934e-06 4.912691244796712e-06 3.379570381674008e-06 2.546492187940875e-06 1.9291805525752907e-06 1.4785321443619146e-06 1.2094110072348628e-06 4.544808679065182e-06 6.389721689050942e-05 0.0005095522342216383 0.0016488484904887651 5.5457897236678743e-17 8.211938861109113e-11 0.0001422320314873774 7.454932414114301e-05 6.720457087504038e-05 6.352610309397517e-05 6.019262744764024e-05 5.746589046718213e-05 5.532029091480181e-05 5.553557633238511e-05 5.338627877306871e-05 0.0001049936712443069 3.10326785209075e-09 1.990575888065096e-09 1.2511719236232085e-09 8.833224745929454e-10 6.599784247239062e-10 5.213971130475894e-10 4.4105464090034663e-10 4.000065741205657e-10 7.867787154252004e-10 4.5580235450015815e-05 4.2526278704557014e-06 4.261832376495025e-06 6.696705316897446e-06 8.082647663652049e-06 9.157734450903026e-06 1.0063065977825654e-05 1.1259508696112237e-05 1.1880306145392958e-05 2.6533061559472287e-05 4.9134624954592575e-06 4.279318788636441e-06 3.4939763348126754e-06 2.869672140276788e-06 2.325213741456693e-06 2.118002759790749e-06 1.1081616821470246e-05 0.00014779386626323894 0.0010802898639241478 0.003254451081906946 1.3601816158820175e-16 1.3926201873761704e-10 8.075802194327738e-05 5.824942385806371e-07 2.5079728507923675e-07 2.2419905944299062e-07 2.0149187781238924e-07 1.8257643948426855e-07 1.684430305944055e-07 1.6314352612161617e-07 1.66069655872789e-07 5.536683834078257e-06 3.266225591670118e-09 2.3373461658049482e-09 1.7618940179780088e-09 1.3445208338324303e-09 1.0575595673204727e-09 8.556460809994325e-10 7.184665455245312e-10 6.434092396975165e-10 1.0640438402225603e-09 3.14739482274003e-05 4.7572575918480784e-08 1.508088622096892e-09 2.983255249128101e-09 4.219060561544002e-09 5.260593487275524e-09 6.233086193459618e-09 7.418348302795915e-09 9.893581708150229e-09 4.303516304307471e-06 4.913845182369119e-06 4.441086210579571e-06 3.9057588040902946e-06 3.3528872801587197e-06 2.8387344385017254e-06 3.0614007473256345e-06 2.242966456396358e-05 0.0002687164673923789 0.0017527127678011367 0.004837741083612281 2.241180321585668e-16 1.9582158680936203e-10 7.29804690070946e-05 2.721902615201042e-07 9.57938133532058e-10 3.938121804982443e-10 3.344849953915897e-10 2.859823265372386e-10 2.4853497743300014e-10 2.2797649778000928e-10 1.7402066408304666e-09 5.250808911119424e-06 3.4664798581322663e-09 2.577818518275008e-09 2.040799047177343e-09 1.645628405933471e-09 1.3418407999803957e-09 1.1084032426063617e-09 9.308998851047195e-10 8.028823712371911e-10 1.2743093673976652e-09 3.158907717630497e-05 4.574637828229929e-08 3.079769683111438e-11 7.645336664356498e-13 1.1645194520606938e-12 1.5482208462947906e-12 1.917883294284952e-12 2.494699976699434e-12 1.024350986871317e-09 4.286867490909846e-06 4.91465443485718e-06 4.532080327206235e-06 4.095877267148431e-06 3.6310070234838267e-06 3.200904728780151e-06 4.688906098234558e-06 4.41243747657001e-05 0.00045024234336742667 0.002564300504091737 0.006410514421391546 3.1247624632050063e-16 2.506363273378941e-10 6.900891769481414e-05 2.434872685938497e-07 4.2748258486122214e-10 9.559413583010806e-13 3.6785073554211046e-13 2.934717479799149e-13 2.361209162981319e-13 4.150401062948016e-13 1.5118718953880926e-09 5.2526450097484625e-06 3.6850666770649916e-09 2.7578742515157678e-09 2.239558366545637e-09 1.8553317039809289e-09 1.5485778778740922e-09 1.2970081660607858e-09 1.0888105446211795e-09 9.170619994116329e-10 1.4669409302807665e-09 3.082664133201191e-05 4.455993338928827e-08 2.998128805537224e-11 1.2838488632473015e-14 2.350849001221565e-16 3.1486771050708757e-16 4.0310887864255775e-16 1.1380627559500357e-13 9.778873668577734e-10 4.286989669259106e-06 4.918706634118577e-06 4.590784478578547e-06 4.2208158567356365e-06 3.830412397615184e-06 3.666002926615558e-06 8.75832576414683e-06 8.668176934805627e-05 0.0007227397219567861 0.0035434526980912895 0.007974604374261935 3.985223786066702e-16 3.028708328185545e-10 6.539149649434891e-05 2.1883908172260846e-07 3.6318858106719187e-10 3.992424365031795e-13 6.292274300339335e-16 2.2303437062399026e-16 1.8324445322128398e-16 2.1282384082582007e-13 1.494785917721505e-09 5.255087555643452e-06 3.915268840677583e-09 2.912312522556109e-09 2.39410861094299e-09 2.0153454806559036e-09 1.7064151947766538e-09 1.44232007084769e-09 1.2105658480169073e-09 1.004285656854118e-09 1.664756716922324e-09 3.047566765559796e-05 4.333487360795849e-08 2.904671281198064e-11 1.2285639628213695e-14 3.766013624308515e-18 5.1674809206541755e-20 7.736963292822491e-18 1.0231253486946696e-13 9.270004463355173e-10 4.287172851327895e-06 4.9871459857681e-06 4.711944282599587e-06 4.431480541350046e-06 4.258505925908566e-06 5.248038930381744e-06 2.0153561008769643e-05 0.00016815020269231548 0.0011196104170935533 0.004701684975210835 0.009521252392555662 4.814946879937462e-16 3.5278865967277304e-10 6.24303779680901e-05 1.9829861953610805e-07 3.105290496389078e-10 3.185783676753249e-13 2.4201619862263094e-16 2.8363410477303153e-19 1.948510380924889e-17 2.070828335907445e-13 1.4750789299954112e-09 5.257395943123461e-06 4.147307238301935e-09 3.0552118401141523e-09 2.52702698263405e-09 2.1482333240077182e-09 1.8362850319778704e-09 1.5619368997674652e-09 1.3111723314939415e-09 1.0768152838696693e-09 1.875717480784673e-09 3.0279291230388488e-05 4.238414319149769e-08 2.803870196475225e-11 1.1690892219968178e-14 3.483660737333014e-18 1.6701664765841507e-21 6.45137892965828e-18 9.056372119580009e-14 8.690639296086301e-10 4.2873295778793655e-06 6.118056151611868e-06 6.0223029690628295e-06 6.158878191589741e-06 7.10843095986172e-06 1.2510331338610488e-05 5.0841382742919135e-05 0.0003148410469245718 0.001668595518135334 0.006026179155028313 0.011031152871149589 5.614273220611585e-16 4.008343622785892e-10 6.0100576455633706e-05 1.829515992274466e-07 2.6987248404363583e-10 2.5632666244879485e-13 1.996672230742165e-16 2.191071206288594e-17 3.9345926024673125e-17 2.007856496317365e-13 1.4525221774300045e-09 5.2596956612501916e-06 4.374225224442278e-09 3.2000267432795545e-09 2.6547080581117335e-09 2.271257695358843e-09 1.954513128450422e-09 1.6706686674762263e-09 1.4033858375957616e-09 1.1444416124420927e-09 2.0980792255820076e-09 3.0356113315650685e-05 4.206280498075398e-08 2.7339190538440764e-11 1.1127990878819168e-14 1.289900830263632e-17 9.122781261832674e-18 1.3779334532469616e-17 7.819917890154962e-14 8.030308470185081e-10 4.28729330987862e-06 1.8879812057293567e-05 1.942004156185924e-05 2.0785159032567865e-05 2.5073443043632392e-05 4.1859594587847545e-05 0.00012525325642644226 0.0005575604760030483 0.0023801444011651587 0.007477315282618345 0.012476697662686007 6.394914604573926e-16 4.4839604225455067e-10 6.035442961445078e-05 1.7725545978111047e-07 2.4764262886256474e-10 4.589824466301401e-13 2.392020430349636e-13 2.327577384255464e-13 2.256794270608365e-13 4.113718520304577e-13 1.4268935425496484e-09 5.262021118042909e-06 4.590214719938624e-09 3.363330972669528e-09 2.7948462605973394e-09 2.40089087948368e-09 2.0761671997912376e-09 1.7822535667303371e-09 1.4997091825672984e-09 1.2169038089073825e-09 2.3132934895935185e-09 3.128452658790819e-05 4.3028179831377245e-08 2.7595769256820517e-11 1.4407571116727302e-13 1.2841708826077416e-13 1.232240902140581e-13 1.1777267030974776e-13 1.770070781666639e-13 7.251066468265213e-10 4.2852548756864365e-06 0.00012696997736361438 0.0001236823478083942 0.00011637533490630174 0.00011522422357145245 0.00014235540019083028 0.00028677751068734717 0.0009245915777051142 0.0032396260278191647 0.008994017930961214 0.013826176354494235 7.155742856592581e-16 4.944227545877253e-10 5.802660849513686e-05 1.8051593853993502e-07 1.946850476829656e-09 1.698282886796598e-09 1.6791075244981984e-09 1.6569835704650802e-09 1.6316602187946805e-09 1.6028395183553746e-09 2.9648874324350882e-09 5.265971234857153e-06 4.79208004877316e-09 3.5687214530366513e-09 2.9725255907576853e-09 2.557521642053389e-09 2.2178298679654823e-09 1.9112449054949455e-09 1.6140703332582843e-09 1.30963959937482e-09 2.4915880028037285e-09 3.1387111771139574e-05 4.6087050845560225e-08 1.2110560397796605e-09 1.1634414512493311e-09 1.1415256480302869e-09 1.1178509433523592e-09 1.0923739189684461e-09 1.0648788306144534e-09 1.6562258135489307e-09 4.263456697909297e-06 0.0009482251424766586 0.0008329018268081692 0.0006657985599275223 0.0005180046537665214 0.0004606685399642312 0.0006176708458974874 0.0014419750034432874 0.004211145578033617 0.010506388991489157 0.015049198679801415 7.971227274100225e-16 5.463585098845305e-10 0.00011586759455233303 6.210161871584164e-06 5.895007359445891e-06 5.897076924752938e-06 5.899820808475399e-06 5.9024140063573435e-06 5.9049974858326955e-06 5.9076098542471265e-06 5.9116919215924245e-06 1.117773958866641e-05 5.164138981821445e-09 3.921228446935383e-09 3.2467041068506768e-09 2.7777857893144024e-09 2.40388864206406e-09 2.075365875403433e-09 1.7642878282129298e-09 1.4414709269965223e-09 2.522812843761669e-09 5.2623431526313795e-05 5.171998185074325e-06 5.109133401832321e-06 5.109682125823163e-06 5.110264867593818e-06 5.110753328787583e-06 5.111211181399364e-06 5.111659902456421e-06 5.112579013372592e-06 8.846394521940961e-06 0.00868609515624343 0.006935057723721246 0.004247700676344337 0.0024972214492784872 0.0015583248906713362 0.0013408615564454243 0.0021649290645449825 0.005257801055453988 0.01195228020495921 0.01612251039398531 7.934663600334705e-16 4.94068500526482e-10 3.4122361380870815e-09 3.5950960988263797e-09 3.819906633013933e-09 4.0653123200493085e-09 4.323758183171347e-09 4.584265218295473e-09 4.839023187812411e-09 5.081511286853396e-09 5.308128027871522e-09 5.6802243940824945e-09 5.423263980591118e-09 4.445620021601662e-09 3.6942489740988192e-09 3.1218133743112462e-09 2.67543022763006e-09 2.303626712731679e-09 1.966609555428293e-09 1.6523748385457724e-09 2.3912486763042897e-09 3.641511783828207e-09 3.962773801329107e-09 4.460454835467028e-09 5.230915896063097e-09 6.48675295926459e-09 8.641592699672837e-09 1.2565097283694313e-08 2.0252775401695215e-08 3.6920941570418875e-08 7.862389821540415e-08 2.9083738411945337e-07 0.003009876031573684 0.00425952601709669 0.003921142431061261 0.003019821399250686 0.002476546978890238 0.0031288063170346737 0.00635527122791255 0.013290465480494435 0.01703363502555782 6.475511843907609e-16 3.447050379414682e-10 2.185853100605111e-09 2.5689454124952068e-09 2.835363447825301e-09 3.035371843090385e-09 3.207288311460998e-09 3.3666148694475598e-09 3.5282693053998305e-09 3.7107251740668044e-09 3.940357927388448e-09 4.324786090679032e-09 4.7084912238168394e-09 4.578027925490659e-09 4.0901305942050076e-09 3.5388877979212803e-09 3.0418993695767212e-09 2.6171078756524917e-09 2.2506345418472714e-09 1.9147993539061522e-09 2.1934130806018767e-09 2.9226522840831094e-09 3.2905763539986818e-09 3.77602236212824e-09 4.502654634414515e-09 5.6943887711053994e-09 7.761995922406196e-09 1.1556852662117824e-08 1.901726729757785e-08 3.520664065638506e-08 7.545743448428696e-08 2.4623378707771504e-07 0.0008763792442331511 0.0027095826798552284 0.0038854965475498744 0.003984151596145684 0.0036842080614372342 0.004255172825717742 0.0074791926009872165 0.014503947340330852 0.017781785563356713 4.983675839345282e-16 2.6638179560423026e-10 1.371661706124627e-09 1.9346288116136505e-09 2.2425249868931377e-09 2.4622869926334683e-09 2.6334343657898628e-09 2.7808439222646255e-09 2.922644322655314e-09 3.0784952300492955e-09 3.276374834204988e-09 3.57936982255544e-09 4.000909823634696e-09 4.259769231668521e-09 4.176403124919173e-09 3.841809276796345e-09 3.412609479086417e-09 2.986773102952739e-09 2.601177922612341e-09 2.264858249916702e-09 2.27576366168376e-09 2.5986572559106933e-09 2.9710091300394446e-09 3.4402583561839888e-09 4.154217388644914e-09 5.323682074250133e-09 7.348356230186432e-09 1.1040262922967152e-08 1.8226973701058363e-08 3.3589327832857704e-08 7.185956327432352e-08 2.1050835099009305e-07 0.0003365249486624537 0.0015369958773001904 0.0031358163660746177 0.00420056340159804 0.004591446894946201 0.005367088384738024 0.008586903639856975 0.015593298312038682 0.01837601838479093 3.8031892836931913e-16 2.111372131041012e-10 9.670441122130914e-10 1.4749699002233953e-09 1.8069019023081423e-09 2.0383040001999845e-09 2.215054665026195e-09 2.3619947950563413e-09 2.4981782812976122e-09 2.6418562744354363e-09 2.8157169004611053e-09 3.059781654887016e-09 3.4130792607242127e-09 3.777882891649856e-09 3.9678795735779545e-09 3.907445268923713e-09 3.657107697827565e-09 3.317905286587252e-09 2.9661133025005703e-09 2.642516773068988e-09 2.519372136127592e-09 2.6282446348463443e-09 2.888557419790253e-09 3.3123746549941712e-09 3.997082203514761e-09 5.143394940089648e-09 7.129851608983948e-09 1.07156567509853e-08 1.7566685954645975e-08 3.186966371262788e-08 6.639469348918868e-08 1.8102242560754123e-07 0.00014058465459759674 0.000859490884525688 0.0023025323321962813 0.003890911955837984 0.00504755612121423 0.006293916563368661 0.00962076543330395 0.016567136213949778 0.01883183239193034 3.0124535375416983e-16 1.7423474150019704e-10 7.216226886290353e-10 1.15916607107302e-09 1.4722916479120489e-09 1.7001748051134291e-09 1.874281566733689e-09 2.0176422173293118e-09 2.1482548287711753e-09 2.2827790491491798e-09 2.439622523824165e-09 2.645685013390031e-09 2.935938120869241e-09 3.2933064877712925e-09 3.606196613407683e-09 3.756323884740356e-09 3.711888348771399e-09 3.522455837208722e-09 3.262235201162862e-09 2.9913781031873365e-09 2.8256020493493717e-09 2.8272229608861334e-09 2.997619228750697e-09 3.3655263903782497e-09 4.023647515388485e-09 5.1630240967816635e-09 7.144965484815716e-09 1.0667868597552989e-08 1.7203053710282743e-08 3.031948282298259e-08 6.06529921956609e-08 1.5420167828146308e-07 6.256747464202799e-05 0.00048288371512380477 0.0016208053595995983 0.0033472938405764625 0.0051028563145857405 0.006946838676453046 0.010529645459479446 0.017436207186655884 0.019167669960551498 2.505576834479495e-16 1.491665996691617e-10 5.69480110939215e-10 9.37096541759597e-10 1.2153278096015262e-09 1.4230741779105361e-09 1.5832227093254575e-09 1.7151227433965279e-09 1.8350874741972788e-09 1.95828316949913e-09 2.100826776425916e-09 2.2823425781717093e-09 2.5309647247282716e-09 2.8546631189108997e-09 3.2039845054602e-09 3.4774608191357956e-09 3.602006775502894e-09 3.5738073860017516e-09 3.4400871834512164e-09 3.260320638060216e-09 3.1259533860122164e-09 3.110849348878752e-09 3.261014026312628e-09 3.6370518911641466e-09 4.3549040608147785e-09 5.627456870569662e-09 7.826738152654561e-09 1.1604882047801839e-08 1.820442633825419e-08 3.047642803855671e-08 5.6750982332813986e-08 1.3225662288674796e-07 2.908265770563684e-05 0.00027586067333063615 0.0011241556825769927 0.0027683154311700024 0.004892093365133152 0.007325687094460512 0.011287495792439463 0.018212243246212085 0.01940208942459402 2.2033610540489527e-16 1.3384731307319104e-10 4.813366470418068e-10 7.862955571463158e-10 1.0200280637726623e-09 1.1938711558512191e-09 1.3279714318948064e-09 1.4388229961066262e-09 1.5404680473103974e-09 1.6466935632217196e-09 1.772892184838594e-09 1.9387909724708386e-09 2.1609311508044785e-09 2.46382169982328e-09 2.816282015322219e-09 3.1532138866948016e-09 3.3937523877673484e-09 3.503789435554732e-09 3.5025806479615684e-09 3.440674380515849e-09 3.4017069855018885e-09 3.4769619189705355e-09 3.760251384064892e-09 4.3810927413833186e-09 5.552905486207702e-09 7.620473114529879e-09 1.109513282449846e-08 1.6660365582889527e-08 2.5211116429495633e-08 3.842835905985585e-08 6.202471703890244e-08 1.2105188301882985e-07 1.4238446280185966e-05 0.00016123743992987416 0.0007839260723038202 0.0022546641902832323 0.004551455223744196 0.007487969332452945 0.011898822277146965 0.018909044086326574 0.019551995878081704 2.1428335645599512e-16 1.3319239708190622e-10 4.3630480547752246e-10 7.038074370729356e-10 8.792179852741026e-10 1.0048691125912692e-09 1.1008896972846167e-09 1.180757818271913e-09 1.2552477485924704e-09 1.335090132794042e-09 1.4373150997665347e-09 1.5827255942944982e-09 1.8149417559493242e-09 2.099560927760841e-09 2.465060774446019e-09 2.835732259232783e-09 3.1508731122313787e-09 3.3675879706059836e-09 3.4909692337359576e-09 3.570981889393539e-09 3.7174836663898036e-09 4.109484980861965e-09 5.028240224098227e-09 6.91412323817774e-09 1.0462142847635246e-08 1.6732728141793766e-08 2.7065326581219198e-08 4.2599313078210907e-08 6.332769302948538e-08 8.674249179382655e-08 1.1141578821791344e-07 1.5490212343415795e-07 7.0768593390759695e-06 9.909373852780993e-05 0.0005599274453425004 0.0018448986135391767 0.004184319532788197 0.007513372380195874 0.012392313495448011 0.019542859838541395 0.019631754472429954 3.4522932820975247e-16 2.2734037996357807e-10 8.999902463434918e-10 1.215044225466824e-09 1.4590647677171712e-09 1.6837841667856428e-09 1.9153650990492658e-09 2.162720609341337e-09 2.423318705960409e-09 2.674637480267829e-09 2.880941986842015e-09 2.908537488743746e-09 2.738246605658407e-09 2.466389329514448e-09 2.516290413312963e-09 2.7373410686453677e-09 3.0122912456489337e-09 3.267960459258813e-09 3.492058122427381e-09 3.758759539936441e-09 4.376350696238635e-09 6.664543558167715e-09 1.2580405987443239e-08 2.5112678528216646e-08 4.9317230867989394e-08 9.262689710452991e-08 1.6400249307229723e-07 2.703554120573861e-07 4.069845985391762e-07 5.526417288584799e-07 5.979589161866923e-07 5.85131183364152e-07 4.535084963425514e-06 6.501313681167238e-05 0.00042030696164874415 0.0015410229451194742 0.003855734928491554 0.007477461373552384 0.012808577473590878 0.02013072052195501 0.01965295402125058 9.63178091590113e-12 7.325723271613319e-06 5.64048725079338e-05 3.843595316192493e-05 3.840858940613431e-05 3.737451668884072e-05 3.687018917429162e-05 3.6568523371031876e-05 3.6601943243182506e-05 3.765428013243088e-05 3.769639431208649e-05 6.288554335681469e-05 4.228834150379963e-09 3.3498079860315365e-09 2.921983556391758e-09 2.8985546299243173e-09 3.054615338739751e-09 3.2916514099061177e-09 3.6064446530613694e-09 4.188440155993194e-09 6.703672360594237e-09 2.3724936858674e-05 1.7902727738700792e-05 2.0648651733278246e-05 2.2924605773963837e-05 2.4869205045530338e-05 2.6781794966344516e-05 2.880231419705777e-05 3.163500868139281e-05 3.339527529908598e-05 5.823850710487983e-05 7.029442369445355e-07 3.2153644560671117e-06 4.918131802060438e-05 0.0003342995494924142 0.0013312123566223348 0.0035957133544333043 0.007437594993378374 0.013187084511280055 0.020687420707287473 0.019624580879728577 1.127354466780341e-11 7.289091253511781e-06 5.396501322012718e-06 5.82438014557513e-08 5.570681515591775e-08 5.41042580076537e-08 5.2502536992292316e-08 5.12591978589209e-08 5.0786597440587295e-08 5.1857711063624e-08 5.540723493093655e-08 6.15051769746326e-06 4.609944381316306e-09 3.789729606547285e-09 3.376264758962168e-09 3.2270616000317504e-09 3.283111830424304e-09 3.4940367508327242e-09 3.938141747523284e-09 5.1524999617064066e-09 1.2675145872132195e-08 1.829049126441568e-05 2.071441233242451e-08 1.381826476137237e-08 1.6762870568290625e-08 1.9379661607145732e-08 2.1960801491029602e-08 2.482222930383178e-08 2.8550972217481833e-08 3.3884709051981094e-08 5.439324922936557e-06 9.393106504693201e-07 3.183262057402284e-06 4.0568636975171185e-05 0.00028579104305135976 0.0011924751065306236 0.0034112895388740505 0.007426631884255259 0.013556391081223074 0.021222084692459862 0.019553422488827424 1.1576569442454784e-11 7.281567825129982e-06 5.409556437687112e-06 1.916115028980181e-09 3.757819840067111e-11 3.645706416321677e-11 3.524265304162297e-11 3.39580241877319e-11 3.305522523558414e-11 3.330150376459722e-11 1.4421195399682427e-09 6.0752570479573275e-06 5.200163838611584e-09 4.36782875684602e-09 3.939259425530179e-09 3.741800059965413e-09 3.7349246072697165e-09 3.947115937635146e-09 4.629531718776876e-09 7.1045926914690884e-09 2.5302354799043708e-08 2.1188646334074316e-05 1.4200578384884082e-08 9.358956234412776e-12 6.088592441504546e-12 7.466908948941138e-12 8.847407382722315e-12 1.0358249625687468e-11 1.2367492041744889e-11 8.724125788551789e-10 5.388524688220998e-06 1.3350428542497468e-06 3.475151510191927e-06 3.718727154101519e-05 0.00025782150419653986 0.0011058614970333542 0.0032916277289707207 0.007454792883586498 0.01392840261966579 0.021736104746089613 0.019444591826600414 1.1637260196813747e-11 7.282529201732169e-06 8.500142354060873e-06 3.793101916688176e-09 9.730265907852934e-13 1.5643253614383353e-14 1.4928163597426286e-14 1.4179389710761112e-14 1.3473471778743284e-14 1.7190973811446594e-13 1.38508609461468e-09 6.075909871249409e-06 6.113656720894633e-09 5.230829388875015e-09 4.78991378916365e-09 4.560796937909687e-09 4.5218931322524054e-09 4.785758557718824e-09 5.912706566977716e-09 1.075901027599782e-08 4.9676150021312986e-08 2.3600995936440354e-05 1.7287651690789392e-08 6.289737640542124e-12 3.0206120636359747e-15 1.9118517617716114e-15 2.3405594769848482e-15 2.8005390324162483e-15 7.071985048435486e-14 8.406236025228622e-10 5.388714710054642e-06 1.9695086710138187e-06 4.088596936022601e-06 3.58880682221882e-05 0.00024229763039172983 0.0010516186947979688 0.0032184055141825877 0.007512516391526699 0.014297215813828233 0.022222386526042453 0.019302107978967673 1.164995269175198e-11 7.283106802708413e-06 1.0259326772158221e-05 5.364499249058245e-09 1.4831534386948018e-12 2.996789400601909e-16 4.5851213638557394e-18 4.2313513847093525e-18 1.5456127968421708e-17 1.530744486807202e-13 1.359026181456448e-09 6.07660349169513e-06 7.602394172713355e-09 6.644611052148477e-09 6.178971880554619e-09 5.92335830269588e-09 5.870338904421938e-09 6.255519688592685e-09 8.162144293754191e-09 1.720426761231196e-08 9.327578496155993e-08 2.567362076702503e-05 2.00463405407129e-08 7.738595494039095e-12 1.9850771357953146e-15 7.546009551759394e-19 4.618235682414019e-19 4.016767029297779e-18 6.45432438827842e-14 8.220704135272298e-10 5.388938605563874e-06 2.9848929198110987e-06 5.119987824794189e-06 3.584019981220947e-05 0.00023281642435387227 0.00101457001990795 0.0031679832978948794 0.007575666443629291 0.014640251319999678 0.022666473720476265 0.01912943303123717 1.1652569138534637e-11 7.283196345400027e-06 1.1623956327949975e-05 6.688954602292577e-09 1.97192755599203e-12 4.0169800637877155e-16 6.598771003157788e-20 2.0505308832716936e-21 1.088907869473838e-17 1.4689181136084406e-13 1.3308749015588571e-09 6.0771848782767464e-06 1.0156590191957862e-08 9.096193900667159e-09 8.580545469596637e-09 8.278154797394534e-09 8.206149232648594e-09 8.78569081831444e-09 1.1937778759910481e-08 2.7820445482038483e-08 1.651154453576471e-07 2.772183763836235e-05 2.278246512919861e-08 9.198182782279186e-12 2.4384236657076008e-15 4.821096430476534e-19 4.237237190825152e-22 3.2383321888683693e-18 6.162270247141738e-14 8.024753684807827e-10 5.389103116056289e-06 4.627151776119575e-06 6.788884834649151e-06 3.6669960683875886e-05 0.0002255909137191474 0.0009816508439149968 0.003115070529219902 0.00760931377005112 0.014920980078148748 0.023047916753417882 0.01893007793714569 1.1652644259586015e-11 7.282852986025734e-06 1.2773163477814198e-05 7.925718490034661e-09 2.442874944220547e-12 5.144678097119358e-16 1.0013988361016626e-17 8.355509480680692e-18 1.6985375311245074e-17 1.4040180788264839e-13 1.300580472962478e-09 6.077729833291576e-06 1.4806925970083572e-08 1.3594663412219733e-08 1.2956898097125738e-08 1.2523803878319997e-08 1.2352277047128716e-08 1.3134314620112637e-08 1.800652505824869e-08 4.380471267258804e-08 2.721417261860075e-07 2.9902197504916335e-05 2.5834915658765964e-08 1.0806877892107834e-11 2.9288229812369745e-15 4.360178780199971e-18 3.535590548958953e-18 6.302289683866943e-18 5.861517646478053e-14 7.817334361470798e-10 5.38925172632438e-06 7.3471435796456036e-06 9.512376969126741e-06 3.8328328233014204e-05 0.0002177797471499239 0.0009416642000022056 0.003033607071170868 0.007571458531878975 0.01509206898180412 0.023341634155262504 0.018707967661403656 1.1637452081711711e-11 7.271018832172599e-06 1.429319293636737e-05 9.43408370278082e-09 3.180006931924859e-12 1.4676543429364318e-13 1.3199314447512897e-13 1.168847358048544e-13 1.0097887864144749e-13 2.175287959667432e-13 1.2678915780097758e-09 6.078263929237382e-06 2.3918326216578365e-08 2.243705576796638e-08 2.1473221158647948e-08 2.063194193969492e-08 2.0045543526766987e-08 2.0761467807595867e-08 2.742507385295492e-08 6.52402333352334e-08 4.0959329298134477e-07 3.2972611412980516e-05 2.984354232222559e-08 1.296562874028564e-11 7.670909088009746e-14 7.013147777554438e-14 6.697270350611947e-14 6.371888033104098e-14 1.1578709748427016e-13 7.595072659625243e-10 5.389395590266123e-06 1.2057772124331274e-05 1.412632527502459e-05 4.110991388287907e-05 0.00020716579532101747 0.0008849410362066951 0.002898935609317067 0.007417568205257453 0.015099131187056684 0.023518701179960078 0.018467868400467678 1.162844123645876e-11 7.266341804166807e-06 1.5081907544517611e-05 1.2596824961445971e-08 1.3164976017471895e-09 1.2569927093364697e-09 1.1918008105793857e-09 1.1175775041461986e-09 1.0329813192255106e-09 9.331399848080513e-10 2.0324357312405636e-09 6.079397474734981e-06 4.3672522965534435e-08 4.162346063586269e-08 3.967494235810335e-08 3.755966163787619e-08 3.550761054810599e-08 3.504417737916893e-08 4.2261896316679756e-08 8.982732579769523e-08 5.561251789163576e-07 3.499376299805287e-05 3.565050168473645e-08 9.428894461399487e-10 9.08991478136359e-10 8.890283392198009e-10 8.679440490287e-10 8.456256899669688e-10 8.217014155731957e-10 1.5295895732960273e-09 5.390313777659974e-06 2.097191728497644e-05 2.25780986468814e-05 4.607139653967562e-05 0.00019257654151084403 0.0008048403728584276 0.0026920353474663185 0.007107428335906569 0.014885831925319658 0.02354631738899335 0.018215471988644052 1.0948650298031851e-11 6.744437803801099e-06 3.3848556986039734e-05 5.513256124814985e-06 5.491987825417115e-06 5.492147267636386e-06 5.492385541637358e-06 5.492591184990899e-06 5.4925598909768345e-06 5.4900454981903245e-06 5.462754266972623e-06 1.0871019505726739e-05 9.309569273545202e-08 8.931981561935278e-08 8.501404266823118e-08 7.843408338553872e-08 7.133648055139958e-08 6.586837272262619e-08 6.944051231585371e-08 1.1692816514224176e-07 6.011415743239859e-07 6.185310176986411e-05 5.852218309587348e-06 5.798128181840886e-06 5.798334530115594e-06 5.798577501447242e-06 5.798756713357926e-06 5.798919523816512e-06 5.799078684330586e-06 5.799958411109437e-06 1.1187835391037069e-05 4.2101953168416336e-05 4.1383181198081896e-05 5.7155839712101425e-05 0.00017598586263179749 0.0007014305671003211 0.0024063133456408096 0.006615260837694338 0.014401472562676028 0.023387323405265253 0.01795742666542958 9.931503212895862e-12 6.0821011781537725e-06 6.083084098679401e-06 6.083560898593663e-06 6.084550839675468e-06 6.089395918301722e-06 6.1718132427053424e-06 7.549546213992086e-06 2.3236156066230803e-05 0.00015717536318906914 0.0011840107948752135 0.011006548511873798 3.5067460999311717e-07 2.933210177570547e-07 2.4992193406990455e-07 2.1448722547344692e-07 1.8217610517322026e-07 1.5507642966065163e-07 1.3881747821179207e-07 1.6835388733970644e-07 5.907413231801419e-07 7.100013583522044e-07 9.482309465929598e-07 1.346963890830063e-06 1.986091720614051e-06 3.008796954376923e-06 4.662864919874336e-06 7.402752595104293e-06 1.2149295162781996e-05 2.113671816688055e-05 4.246728090254381e-05 8.840103179283172e-05 8.62725186059697e-05 8.748988972300049e-05 0.00016816485147402616 0.0005864711979135612 0.0020548109304995205 0.005940640961326898 0.013610842898365708 0.022999997049178142 0.01770096792758433 7.138704310838035e-12 4.1840364177154976e-06 5.297976562858253e-06 5.498251154891749e-06 5.6108821137941516e-06 5.683330653885192e-06 5.830513446186647e-06 7.427374199474387e-06 2.389295993270659e-05 0.00015304709156715405 0.0010392880570291624 0.008779718526019194 0.0038137734491205193 0.0011111082836589082 0.0004267466274835937 0.00017829517638157558 7.934844248048107e-05 3.6874504676626295e-05 1.8041096836537855e-05 8.94577043