# vtk DataFile Version 3.0
vtk output
ASCII
DATASET RECTILINEAR_GRID
DIMENSIONS 41 41 1
X_COORDINATES 41 double
0 1 2 3 4 5 6 7 8 9 10 11 12 13 14 15 16 17 18 19 20 21 22 23 24 25 26 27 28 29 30 31 32 33 34 35 36 37 38 39 40 
Y_COORDINATES 41 double
0 1 2 3 4 5 6 7 8 9 10 11 12 13 14 15 16 17 18 19 20 21 22 23 24 25 26 27 28 29 30 31 32 33 34 35 36 37 38 39 40 
Z_COORDINATES 1 double
0
POINT_DATA 1681
FIELD FieldData 1
Concentracao 1 1681 double
0.0 4.63216630835549e-23 6.60572743717531e-17 1.0800668574123095e-16 1.497300226432284e-16 1.9019164343560105e-16 2.287480706730176e-16 2.655915552609167e-16 3.01050115018661e-16 3.3613650400850525e-16 3.700765196813977e-16 4.0725290472112626e-16 3.682776046782382e-16 2.569428114645367e-16 1.98560386595409e-16 1.5738106956990326e-16 1.2987828884765444e-16 1.1887705019508428e-16 1.7588384837536095e-15 1.1026259627252057e-13 1.0150392428818326e-10 1.2085499613463659e-10 1.6262461865705724e-10 2.265177885010369e-10 3.242664513028287e-10 4.772589781552025e-10 7.228658082994123e-10 1.1211005872112945e-09 1.7580459081851344e-09 2.7588847313460715e-09 3.85844636746059e-09 4.951442791861221e-09 5.481370818677522e-09 7.757751603904968e-09 1.0944285177067475e-08 1.2893757687958699e-08 1.2353396709795387e-08 1.2822269327972304e-08 1.5788039463929972e-08 1.6599641994864692e-08 1.4896593771950463e-08 4.2113674586607233e-23 5.790212491896357e-17 8.257165902196576e-11 1.3500846518322443e-10 1.8716267803405816e-10 2.377397423746015e-10 2.8593531708934264e-10 3.3198970760363973e-10 3.7631293362625883e-10 4.201709661471356e-10 4.625960196782668e-10 5.090665311461265e-10 4.603473727966108e-10 3.211787699185105e-10 2.4820068180464786e-10 1.9672649434344865e-10 1.6234799088378285e-10 1.4859643087851837e-10 2.1985498635304956e-09 1.3782835551143614e-07 0.00012688000677963548 0.0001510688653356269 0.0002032809359459402 0.0002831474615468068 0.0004053333883949872 0.0005965741999529814 0.0009035829832400736 0.0014013768544923544 0.0021975591419354425 0.0034486086727323053 0.004823061816676065 0.006189308441269317 0.006851719004717721 0.009697197262632814 0.013680367371192563 0.016117210003258726 0.015441758240640945 0.016027849482234707 0.01973506511795193 0.02074956909322286 0.01862075711153185 5.576457594107959e-17 8.257350381483268e-11 0.00014301856565626704 7.461241896636934e-05 6.737475929279858e-05 6.368681473629656e-05 6.0337360133132105e-05 5.759913624048587e-05 5.5444792220003614e-05 5.5668258523551595e-05 5.349118605079716e-05 0.00010557974343893082 3.1194719938246393e-09 2.000704148198503e-09 1.257334125087583e-09 8.875512835709984e-10 6.630904423790327e-10 5.755482152721268e-10 1.3122902903023707e-08 1.0516610334441763e-06 0.001019676463111649 4.559002568434966e-05 4.2194459591153085e-06 4.258637727413779e-06 6.692943538335074e-06 8.073765145855414e-06 9.141408982723604e-06 1.0034381667459694e-05 1.1209288382525595e-05 1.1792587420667877e-05 2.625819468236884e-05 0.008902887674655531 0.01219810397525167 0.01857673404744163 0.025772479069841456 0.02840763517526021 0.026178708110477705 0.02705597690412709 0.03112575619098096 0.02947278392573685 0.024788654708682453 1.3656572406969143e-16 1.3976645593527278e-10 8.085597814847801e-05 1.8034020145000505e-07 7.704184081355298e-08 6.856163737409754e-08 6.123478639761472e-08 5.5138800923734544e-08 5.0549961738922264e-08 4.865841706605245e-08 4.919946537736116e-08 5.353501686523376e-06 3.27703762279075e-09 2.3476606467149506e-09 1.770008753591789e-09 1.3507896438682556e-09 1.0628352908776752e-09 1.190699851893704e-09 7.494391014269978e-08 8.104378517932793e-06 0.002148113662386474 3.1358817865442045e-05 1.0162447354459208e-08 3.4578025095217194e-10 6.669670752721451e-10 9.028694792081167e-10 1.0742960593390367e-09 1.2105498281785994e-09 1.3668811238984943e-09 1.7041569276503726e-09 4.107310670814815e-06 0.017653492214842526 0.022130226238206294 0.030904231237520906 0.03788177274009393 0.03729269944285019 0.033013259424980686 0.034174542547242115 0.036385583295263244 0.03090025787296822 0.024450434976264934 2.249076247606748e-16 1.9646823388573492e-10 7.31657942153031e-05 8.358627279015243e-08 9.044139137118219e-11 3.67183176845615e-11 3.08391675852055e-11 2.6042439315777724e-11 2.2351081197313847e-11 2.024867197988266e-11 4.5369287281132306e-10 5.26867698347697e-06 3.4779736207383846e-09 2.588384635912019e-09 2.0497521898950448e-09 1.653070442024442e-09 1.3553996102085258e-09 3.859662570502855e-09 4.1487638000490243e-07 3.6858040959211986e-05 0.0037360119263110795 3.135547252452758e-05 9.078297577613964e-09 1.32785742267155e-12 3.9348912670043e-14 5.611344151954881e-14 6.859402232736863e-14 7.774432521670127e-14 9.128609225761388e-14 1.358916365997651e-10 3.822305878396542e-06 0.03422318716325924 0.03875014177051519 0.04529076421208541 0.04702963312355048 0.041425438098511395 0.03653784204107333 0.03794835684771409 0.03690973593691604 0.02810772693629947 0.02107044805130312 3.134989080557024e-16 2.514214606784106e-10 6.918356713386669e-05 7.441712510473445e-08 3.981720403197576e-11 2.7227545819037736e-14 1.0289146901514615e-14 8.065354103845874e-15 6.369445099158423e-15 2.2070366227794496e-14 4.2027907568009966e-10 5.269268902423239e-06 3.697974009463912e-09 2.769688796763146e-09 2.251162279476618e-09 1.8741378730200812e-09 1.8531548347693298e-09 2.7570307728438008e-08 2.0357107592210324e-06 0.0001128229669604827 0.005841251177477855 3.0436498968867443e-05 8.25505433206914e-09 1.1472880020799132e-12 1.080709753108584e-16 2.6087525798411592e-18 3.1552399602855478e-18 3.545582926821998e-18 2.4272496900116434e-15 1.0228037824474151e-10 3.2943494723656373e-06 0.051880933767592945 0.0535892130411833 0.054125908216304294 0.04908039411068827 0.04101546723716854 0.03775174822712438 0.038619813687381786 0.033898899270685505 0.02325968388387416 0.01666420845765941 3.9976223211441337e-16 3.037815236628676e-10 6.554874070288637e-05 6.646779619340826e-08 3.3445654786498607e-11 1.1148212298094402e-14 5.346347147525792e-18 1.8505533616835455e-18 1.7213503409745182e-18 1.5500601764306555e-14 4.0273433296049215e-10 5.269956262723625e-06 4.283989362053222e-09 3.369148789711501e-09 3.1476477656695525e-09 3.964546503703297e-09 1.3624271032177733e-08 2.4612232571012415e-07 8.507591661977472e-06 0.0002807015235898318 0.008531070646388906 2.988092270036187e-05 7.492122070244976e-09 9.909758537589039e-13 8.829810219845381e-17 6.015359228319037e-21 1.1868499229545807e-22 2.851107938519536e-20 1.5729992832896897e-15 7.15896375158281e-11 2.583578034204079e-06 0.05977672002439375 0.05760013780911451 0.05271243872488463 0.04475228105108419 0.03836945307632748 0.037264820095713976 0.036346795888891614 0.028661860564901984 0.017885771421332707 0.01235364240698969 4.829357595949109e-16 3.5381508102911507e-10 6.257513796505209e-05 5.985151610674644e-08 2.8243618336381858e-11 8.739190690222791e-15 2.0032133830534406e-18 7.176619404071288e-22 3.4653060620347395e-19 1.4022980211528615e-14 3.824045116620816e-10 5.270589692613944e-06 3.532847054025153e-08 3.9565739563145254e-08 5.393630507078326e-08 9.623141804372114e-08 2.776589083476615e-07 1.925152751152026e-06 3.0122252792764414e-05 0.0006016189829014425 0.011780578895521658 2.9429999879331755e-05 6.838978580427385e-09 8.54366007329096e-13 7.238078125778913e-17 4.613370600261599e-21 5.510730127263665e-25 1.563640957166133e-20 9.428140543556337e-16 4.659771189008013e-11 1.8479762070069193e-06 0.054342167545795475 0.05030734652033091 0.044307952012492414 0.0381756639919954 0.03516465555334175 0.034891003278823315 0.03166822225719253 0.022562961935167117 0.012957468198994194 0.008687225356347214 5.630555135527112e-16 4.019688931287158e-10 6.023583528854547e-05 5.487116428321458e-08 2.4240399903229578e-11 6.90160723479027e-15 1.882806390111909e-18 3.92053266323764e-19 6.215185580117596e-19 1.2441885943410864e-14 3.5922001131965895e-10 5.271196771560275e-06 1.0269667992246905e-06 1.1324899616471675e-06 1.3842787969449059e-06 1.9616116356036985e-06 3.6348849985470708e-06 1.1942620639736214e-05 9.04787298269634e-05 0.0011309452624367975 0.015396186736017945 2.9207814103614356e-05 6.349498280612989e-09 7.478948246217675e-13 5.97575763809577e-17 1.8815193384636745e-20 1.0581921148259555e-20 1.4751109513455912e-20 5.128512317041335e-16 2.789628436721627e-11 1.213347223273659e-06 0.041155741470605675 0.03811871312511812 0.03451084148034449 0.03188916337006354 0.03125889442764954 0.030507687953460084 0.025652372125621714 0.016736648612301997 0.00895014626409483 0.005846467339452992 6.413040369214254e-16 4.4964396102519537e-10 6.0498679022297824e-05 5.2836365647074274e-08 2.1969123092392773e-11 2.465737128197238e-14 1.7480886859108773e-14 1.5818425434611e-14 1.4039188172662037e-14 2.2926479600792994e-14 3.3275684069881276e-10 5.2717029369026935e-06 1.7907392138454747e-05 1.8702805604087906e-05 2.020391472788932e-05 2.3378291900960267e-05 3.127983164363112e-05 5.965273110192526e-05 0.00023493498684657363 0.0018770220176043068 0.018887492067898814 2.979965382381105e-05 6.122437593917404e-09 6.850443990124615e-13 1.7943672100445463e-15 1.347102614732831e-15 1.0010593464748509e-15 7.121291239623695e-16 7.245353260476276e-16 1.479981305578521e-11 7.188089956868723e-07 0.027145378092052738 0.02631122394778974 0.02570735676293507 0.025741933028755586 0.02611185197529246 0.024734366363984513 0.019506860440325426 0.011858603565401827 0.005964076790188297 0.0037965223312221574 7.175514964155019e-16 4.957606190693709e-10 5.814029261319465e-05 5.344816698953791e-08 5.095800727147607e-10 4.727743015480782e-10 4.53077450993331e-10 4.3025365307348274e-10 4.042249317017033e-10 3.745128696389482e-10 6.414211102509449e-10 5.271387981274468e-06 0.00020668768687913137 0.0002031094455004393 0.00019524707348666007 0.00019068946919507262 0.00020026015214280273 0.00025673805844494036 0.0005583466340498176 0.002750023607587082 0.02172516968425399 2.9642698417150826e-05 6.2346360835712905e-09 1.278593940202113e-10 1.0986242811442338e-10 9.199473758970145e-11 7.43960275482134e-11 5.7758824912557674e-11 4.2689352785985116e-11 3.59558460213314e-11 3.5096492935750084e-07 0.015163623855316164 0.016039426678712252 0.01747689723179786 0.019101700691519365 0.020011159696504435 0.018648467936027372 0.014104003560807305 0.008139918423942433 0.0038793689941103143 0.0023987657691909364 7.99506438808407e-16 5.480883910861561e-10 0.00011651658287647948 6.008616167220454e-06 5.915073778762092e-06 5.91574037300199e-06 5.9165137333240475e-06 5.917226477542176e-06 5.917909568082338e-06 5.918478604564428e-06 5.9180545983845e-06 1.1159837177439673e-05 0.0018948543574300715 0.001719279727368409 0.0014267980264577934 0.0011942815694437677 0.0010441767741042485 0.0010158589432768491 0.0013527757272741407 0.0037319622074467357 0.021174267797078164 4.9858643133507356e-05 4.750263595687798e-06 4.612656561598919e-06 4.420245830499839e-06 4.147877131667924e-06 3.7836648759153936e-06 3.32587756143658e-06 2.7874408513271528e-06 2.1973185567320322e-06 1.6836988139084207e-06 0.004410359462122296 0.0061367610722685845 0.009523472767456909 0.012316953679609069 0.013902743230379582 0.01316947530299794 0.00981616177946544 0.005482256111848041 0.002490804941806286 0.0014872081883775341 7.959161048186452e-16 4.956328290353075e-10 3.430145480360754e-09 3.607073348105405e-09 3.8326493346524655e-09 4.0796342689394565e-09 4.732761689905475e-09 3.913245339647306e-08 1.1373383659776836e-06 1.9832462192505828e-05 0.00022902447531484034 0.0021023486773228857 0.008807438270575079 0.008549748367265526 0.007012144694987244 0.005500845589986173 0.004371684273322968 0.003676352958978843 0.003565213929251137 0.005502288462400299 0.01978781952876592 0.02276561205023804 0.028519845996344814 0.03724792205904044 0.04900492558323449 0.06323891632425131 0.07831036671517974 0.09151807778822368 0.09959745704800958 0.0996303307825778 0.0901710659200339 0.07152564869047312 0.029563601169075745 0.013127511163615099 0.009113348032759136 0.009231638292128991 0.008855898663236586 0.006647875075346998 0.003658867812403577 0.001594072596300841 0.0009121717459146889 6.495766609078953e-16 3.4579645598625273e-10 2.1970387496693326e-09 2.580346668072321e-09 2.8470509245467727e-09 3.0484570976902966e-09 3.7148752951258635e-09 4.3855181946626214e-08 1.2548335097026805e-06 2.0720325949659385e-05 0.00022510018211311845 0.001907291388889526 0.008855119537432081 0.014835711981659283 0.01612143027585014 0.014703852694522263 0.012512681631853395 0.010551594579266885 0.009399824635077594 0.010021110526105962 0.017744206338164002 0.023736964584677788 0.030346775845262828 0.040057649221514266 0.05278031052977551 0.06776157981871016 0.08304853131183099 0.09572966726865784 0.10259346537693846 0.10106993963428137 0.09022940097223432 0.069977492174323 0.042514639987790925 0.01969259316663107 0.009393883986024113 0.006642527013445546 0.005881569132860474 0.004434478057809132 0.0024367213360229367 0.0010245077095705094 0.0005575111583251755 4.99937451557055e-16 2.672252304177846e-10 1.3784604735695584e-09 1.943591819022627e-09 2.252419814987754e-09 2.4751651549071703e-09 3.4744949244533862e-09 5.992226986475643e-08 1.5356862569953062e-06 2.2397057728975398e-05 0.00021641871821009555 0.0015820644039680838 0.00742486391879475 0.016526111097733595 0.023396223697598684 0.025817331558366928 0.024992778332515526 0.02284567662989409 0.02085297874720229 0.020416033496521633 0.024555793493135584 0.030593319849478797 0.03850724196797348 0.04933456988379401 0.06291183567563804 0.07788837211740206 0.0919344952500185 0.10218279574291389 0.10600043286395192 0.1017189705272123 0.08905993457763144 0.06935365336226067 0.04542392385887649 0.023946423088059006 0.010879939019120242 0.005658308034537913 0.004075065919557045 0.002963891288939802 0.001628260933293732 0.000664489693151471 0.0003415543225643428 3.81520985556923e-16 2.118057359060784e-10 9.717055916070886e-10 1.4818895674969276e-09 1.8151227961130391e-09 2.0594723343464883e-09 4.4045087340635194e-09 1.0730383852974266e-07 2.1806684656109403e-06 2.594672262620261e-05 0.0002114797333116335 0.001324399268543601 0.005921287143093057 0.01538526275717805 0.02637769568376672 0.03445449583374192 0.03809229545200536 0.0384308259596479 0.03747757796499662 0.03723778928507358 0.04014935230338832 0.04588424378354306 0.05445416956803663 0.06567244513449812 0.07868699092266923 0.09161561530241458 0.10205012687708481 0.10772964600557679 0.10712511687917044 0.09969229077897167 0.08586629033302987 0.06703260270705445 0.04568219503077897 0.02596820479776389 0.012284294680647274 0.005527988194929154 0.0030989938218111894 0.0020305170392536393 0.0010981382732374381 0.0004360868150799388 0.00021064937353139457 3.022098305568304e-16 1.747930343791009e-10 7.250539636874288e-10 1.1650161708464432e-09 1.4877375974054505e-09 2.049499598570433e-09 1.535517875116684e-08 3.112644707560668e-07 4.055499436278509e-06 3.480231781852601e-05 0.00022243740387132744 0.0011589045753954436 0.004764449204023445 0.013324618036313341 0.026037299720443243 0.03886877152144554 0.04823830304592965 0.053373457636173884 0.05571556148341411 0.057500954295144215 0.06099559378393018 0.0669490960469329 0.07526445512817274 0.08522481680533012 0.09532024725648643 0.10358611301166051 0.10820920850410441 0.10808488967385108 0.10296371934973746 0.09320138700222648 0.07941733464371814 0.06248589630667941 0.043891403794399 0.026351790804498808 0.013129864277919685 0.0056867736967039515 0.0026196978547283825 0.0014589214926449693 0.0007526344363744534 0.0002898831545993748 0.00013113269184839946 2.702615639969031e-16 1.6109388159004574e-10 6.333284519208944e-10 1.328967799206133e-09 4.400053086857319e-09 3.1540705978136634e-08 2.797384677952939e-07 2.173899531796235e-06 1.3418362430563733e-05 6.676410525960037e-05 0.00028641094669307676 0.0011304679674940632 0.004045776127780411 0.011406159689569668 0.02422307695522599 0.03996653335748571 0.05443381042596139 0.0650178839112221 0.0718393669750443 0.07669580303735408 0.08163673776008554 0.08759529823020855 0.0943554525468043 0.10084286734772553 0.10557234855510884 0.10724046765637851 0.1052300494252019 0.09973781529641172 0.09148493982377773 0.08119414003319533 0.06918049842000625 0.05540072238171348 0.040278655922600624 0.025360419236589573 0.013287611916738011 0.0058029306208612855 0.002382275295029621 0.0011124721066891221 0.0005275470713469894 0.00019517320273525475 8.249684408505546e-05 4.1965417461493576e-15 2.5811080452589033e-09 1.534924170495392e-08 8.711204438511705e-08 4.790040864007715e-07 2.3368349810086427e-06 9.7231209842857e-06 3.430998905768927e-05 0.00010277535456668766 0.0002661432244556701 0.0006302178166341057 0.0015190192219572934 0.0039653117984845 0.010300676476509394 0.022467114841291026 0.03966951120116839 0.0579055743784114 0.07325676483420229 0.08429647711124034 0.09189591004379784 0.09762092758091338 0.10220367793605602 0.10529522173718235 0.10603553315012545 0.10378347350310246 0.09851899521864224 0.09088346727649024 0.08193149568894617 0.07273977922805275 0.06394417689633336 0.05534550035728817 0.046004897410289965 0.03502488975297162 0.02321751984254973 0.012752837175807611 0.005706623141878953 0.00221769791492649 0.0008926572401848211 0.0003790722091430484 0.00013293845652149347 5.244854926246368e-05 2.5830807085927096e-13 1.6274552517969472e-07 1.2328450601337735e-06 9.448717339403017e-06 4.277400197999281e-05 0.000130593080293717 0.00032436130394497315 0.0006944158743943022 0.00130437984541059 0.0021633446031351245 0.003166127927194651 0.004282616466476387 0.0062503650789299875 0.011186512437622687 0.02236083775077042 0.04008552287210202 0.06084366561105538 0.0797086188439423 0.09370766438989685 0.1025134651996903 0.10700435045417891 0.1076782931634141 0.10450097509710486 0.09784846958402331 0.08865331371811515 0.07807768568200599 0.06732280716176742 0.05745323705732421 0.0492247172478437 0.04315011401406721 0.0388311089909464 0.0347262410383799 0.02859199694472874 0.020154311068961487 0.011586136937479098 0.0053272127069250615 0.0020280657391755735 0.000734359635961229 0.0002778929051905586 9.13506899943867e-05 3.366548686721025e-05 2.1368370245651246e-10 0.00015159473274089754 0.001216046783000386 0.0025465640928812 0.004422092358265319 0.006908405687464394 0.01008549216264335 0.013924131424941687 0.018195599376779368 0.02231946517673208 0.025665763590703213 0.025009635712665897 0.02330024326903364 0.02050165270563503 0.02755535300914701 0.04402400692677603 0.06568518627757991 0.08639977753151079 0.10143401689875865 0.10904120681704886 0.1090987898413683 0.10147135963346361 0.08913663385182344 0.07541115629164745 0.06195920790203487 0.0497845359981178 0.039470918589657525 0.03128183581928986 0.02533204923923984 0.021441295370925793 0.0211105222882439 0.021406118194724297 0.02144290546629488 0.01641302344225913 0.009876824100745469 0.0046731415718263706 0.0017733177497884847 0.0006006496819491021 0.00020541455061101483 6.30456438827905e-05 2.178197813299128e-05 2.894278768016725e-10 0.00017893425200000502 5.642293356758541e-05 3.8300976819578555e-05 3.813319306431029e-05 3.691343591249771e-05 3.6166638934705923e-05 3.55634612627145e-05 3.524288190885864e-05 3.589706308926737e-05 3.5632536179690654e-05 5.9620103768507853e-05 0.026783954430088287 0.027626116413301906 0.03480315605883699 0.05108201181332264 0.07322820028786829 0.09424616798533927 0.1080379439463954 0.11157797158474414 0.10311828695975805 8.250960083172347e-06 4.6393795499008215e-06 3.965181590357051e-06 3.228804501578437e-06 2.550307288395857e-06 1.999305252703269e-06 1.585120155367061e-06 1.3315023899304028e-06 1.14177463197912e-06 1.9241193860756995e-06 0.018547461616783688 0.017052407110824404 0.013090575027724975 0.00803233786835535 0.0038578948632490414 0.0014671626283479843 0.0004775341254805519 0.0001509931490110928 4.346483821191665e-05 1.417817941852216e-05 3.886378453102763e-10 0.00024121350603353582 5.355748434198386e-06 1.2516299156048485e-08 1.1122268225917249e-08 1.0087154915140728e-08 9.138110022616219e-09 8.329690421367028e-09 7.723493558010055e-09 7.435646180675266e-09 7.55418168087509e-09 5.654133645972897e-06 0.03352257166929965 0.03537560280035937 0.044135495953281874 0.061288491992654 0.0833879117025917 0.10297575856605665 0.1129959615010286 0.10987424123596215 0.09150639592173714 4.805501247829365e-06 3.168630416860557e-10 1.4581469583073696e-10 1.2295002031069577e-10 9.87157157577248e-11 7.814391926764846e-11 6.286123695776749e-11 5.374034186537327e-11 5.01312648661034e-11 1.1388784735085335e-07 0.014804061892482241 0.013430018976120964 0.010146870500118994 0.006214327087297508 0.003008677010271529 0.0011467728714615174 0.0003650492435391609 0.00010920373002622036 2.9793852325209174e-05 9.265592126849006e-06 5.387134472587687e-10 0.0003359635662645781 5.405833099919168e-06 4.4200976227604414e-10 1.6390453038770954e-12 1.4117929739394134e-12 1.2173942767010202e-12 1.0482719138295648e-12 9.166037205890364e-13 8.383464586529789e-13 1.5361234155090327e-10 5.492636836102304e-06 0.043736021611124894 0.04670591358777024 0.056782135416417634 0.07450246795618613 0.09540613029671012 0.11139519969488551 0.11529217389403387 0.1041807007656368 0.07810497376733751 4.148834875050588e-06 1.5361462329445496e-10 8.868230532596663e-15 3.8001197553402585e-15 3.127030307610587e-15 2.509951900514193e-15 2.0360468841760433e-15 1.7598552695261873e-15 5.084020501953592e-13 8.102601342812367e-08 0.011176877431824822 0.01002005461124637 0.007507620777525552 0.004584351211172932 0.002225532157557609 0.0008513018716108245 0.0002680726593715374 7.735520926674787e-05 2.0253862937444152e-05 6.0682522500367614e-06 7.697791025704999e-10 0.00048088784333051316 8.496077235756234e-06 8.530158818343883e-10 5.06319850826605e-14 1.3399993309786863e-16 1.0923557748831899e-16 8.944847956627472e-17 7.37781627941647e-17 2.177162747422302e-15 1.3214793285282898e-10 5.267245465026249e-06 0.05749588914589695 0.06154706919646868 0.07262270433860797 0.08981494035522275 0.10762710889242486 0.11784047417179115 0.11415913155724311 0.09547285145231035 0.06471292271849521 3.4087709311395965e-06 1.3081960091849532e-10 4.069801917206207e-15 2.1035842619235061e-19 8.514547962389766e-20 6.891340771988865e-20 5.58417978404363e-20 1.800118908553111e-18 3.2869556106771285e-13 5.511697712545343e-08 0.008071407493347053 0.0071626096680326755 0.00531786753154545 0.0032359347783954087 0.0015750885581794743 0.0006056333856846966 0.0001902534611404877 5.3742803841333694e-05 1.3658714506434697e-05 3.977458850283316e-06 1.1326205468286908e-09 0.0007078198413822609 1.0249249200796393e-05 1.1552163480841882e-09 7.2256869074887e-14 3.377199273949572e-18 7.49910337398892e-21 5.7419139048006965e-21 2.310986236045617e-20 1.6368653987157222e-15 1.1083370094495842e-10 4.947977149776622e-06 0.07418358585653571 0.0790639822921809 0.09015886713834494 0.10512968148665966 0.11784206063275082 0.12081985149543815 0.10952188801743058 0.08499556775942972 0.052436051154372554 2.715827264829027e-06 1.0602712563500017e-10 3.3830384266208565e-15 9.270434070416667e-20 4.3315206485115924e-24 1.6714960332905758e-24 6.242817472510589e-24 1.0471165329612522e-18 2.0463784016706298e-13 3.599208475864487e-08 0.005593563672439957 0.004917471357156169 0.0036240270923660295 0.002201262778254202 0.0010766171699308524 0.00041763544686820197 0.00013180559667493464 3.68381105704354e-05 9.164478062975404e-06 2.6072575120226336e-06 1.7161085466920534e-09 0.0010725424402086598 1.1605178328847642e-05 1.3752124968852928e-09 8.83879936148596e-14 4.0882857651619086e-18 1.545183345179854e-22 7.078802003145675e-25 1.299068270085253e-20 1.2191341210599796e-15 8.980830591434402e-11 4.5203955016539565e-06 0.09192780071420928 0.09703726039753234 0.1067488919124751 0.11770689164080597 0.12396666209117965 0.11958453509654625 0.10205194867755242 0.07407052757437609 0.0419428741040863 2.148289889069035e-06 8.474944689657702e-11 2.743703237493077e-15 7.585838715699764e-20 1.8515278958786212e-24 1.0405363424681438e-28 2.717206912834797e-24 6.013809802324957e-19 1.224427010748955e-13 2.2578922892839028e-08 0.0037205100970264283 0.003244974517178749 0.0023825887018677776 0.0014518885001246198 0.0007174865118149614 0.00028249542240483866 9.020841043416947e-05 2.513701700686277e-05 6.150234618823287e-06 1.7095940306229343e-06 2.6641867130697182e-09 0.001665052074433775 1.2739886478246997e-05 1.5504668769275334e-09 1.0025283369050357e-13 4.599555307708979e-18 3.8020882889636345e-20 2.0881491433385426e-20 1.8979024651143062e-20 8.695165017634669e-16 6.989071101440021e-11 3.981651141672564e-06 0.10761591209249047 0.11212005471271114 0.11909209006794712 0.12492224299781798 0.12467830489046511 0.11429422185921939 0.09290684621174174 0.06390281495815903 0.03356906391879862 1.7205287927161659e-06 6.8919884120206e-11 2.2515680882233136e-15 6.22259569646622e-20 7.683799034819253e-24 3.445978856194734e-24 3.2823702541766585e-24 3.309480996411862e-19 7.018415796047972e-14 1.3562359582360534e-08 0.002367137323957643 0.0020535048256363625 0.0015125099917576179 0.0009329489688841454 0.00047026478236998615 0.00018965145562905534 6.177871883371275e-05 1.7263529258312155e-05 4.158770316795948e-06 1.1225896260842998e-06 4.186355782147707e-09 0.0026152629719785334 1.4234660406780554e-05 1.7519989994345574e-09 1.1794209650569382e-13 3.2174080928701098e-15 2.0901668553044443e-15 1.2553787372739962e-15 6.840402305731882e-16 9.143218419653256e-16 5.1802109386244265e-11 3.345902031304663e-06 0.11744191575262819 0.1205677519031557 0.12409743672372256 0.12493604398256226 0.11960323543923798 0.10571057149662325 0.0832994704593693 0.05538073029883156 0.027503160793582702 1.463328771293495e-06 5.971496289677989e-11 1.9744001119244343e-15 2.2193168000692452e-18 1.3016296215414168e-18 7.522438370761314e-19 4.1667648793936907e-19 3.9202408863665373e-19 3.8184892366884235e-14 7.72999434070746e-09 0.0014281376196661904 0.0012382768888051954 0.0009255748428198782 0.0005859851318513876 0.000305443122670569 0.00012774781801422455 4.288085909023061e-05 1.2081877561674465e-05 2.860439968994875e-06 7.398564379319161e-07 6.588077099655868e-09 0.004113835619270974 1.4978756200338748e-05 2.189695269897328e-09 1.7792356042868338e-10 1.344272854223894e-10 9.447424559255484e-11 6.172665762919427e-11 3.7068816995636e-11 1.9713267542483623e-11 4.4511270087504755e-11 2.646241597807964e-06 0.11793645536655316 0.11930786923561487 0.11972024940358815 0.11699953425597272 0.10905072455761493 0.09461029035776648 0.07396342275016204 0.049154438496152496 0.023601579161364277 1.2738971916341614e-06 5.6668450954319714e-11 6.150557381241159e-13 4.0005123072817656e-13 2.5060302517864177e-13 1.5091527163125652e-13 8.708809810746037e-14 4.771640902683934e-14 4.360930603007702e-14 4.095217302242684e-09 0.0008010155517599695 0.0007014086129626706 0.0005428527251626608 0.0003601455936878732 0.00019766070391900406 8.709703443888849e-05 3.0517048657908922e-05 8.731277782390275e-06 2.0248446658523047e-06 4.910075303242264e-07 9.395149513638202e-09 0.0057594516318510616 3.352668225287446e-05 5.275743716580255e-06 4.923784878139836e-06 4.263235929245458e-06 3.3632909068972356e-06 2.4214542326835514e-06 1.5997995771610129e-06 9.5257011301812e-07 4.668130215542303e-07 2.046083018622654e-06 0.10727274015621976 0.1070969025574925 0.10547805331051369 0.10147295779057759 0.09363507223077992 0.08130559203610074 0.06467713771952704 0.04482645136678234 0.023720354425307327 2.204238564352428e-06 1.3472082298378498e-07 9.63913451256842e-08 6.597060029706399e-08 4.3358476100702354e-08 2.7384132014508786e-08 1.6564702842877464e-08 9.510925072865037e-09 5.078212585820197e-09 4.2858164499149e-09 0.0003951975720942532 0.00035987418383050994 0.0003015280834059544 0.00021574975196624513 0.00012753141683355884 6.035680438840691e-05 2.2446707825096416e-05 6.597478835647605e-06 1.4962623838608896e-06 3.295341580273629e-07 1.232222107736294e-08 0.007405635851954693 0.010650687831207838 0.02139760828790618 0.04219308374304571 0.06493214024916218 0.0757596737935781 0.06964237163841364 0.05330881744988094 0.03552269890610447 0.020014693545670485 0.005856433099750062 0.08557684370292103 0.08364166516079245 0.08273706226161312 0.07982615896171309 0.0742744012298725 0.06569236865859103 0.0543164158487346 0.04067547395400359 0.024500026184454436 0.021315818974240716 0.017089229838172255 0.012967261403786182 0.009414427348333617 0.006560331865321312 0.004388140451634446 0.00280790418623164 0.0017039585061768732 0.00096148791303227 0.00047743490978661117 0.00020035679760673175 0.00017137093194205842 0.0001569518675698986 0.00012474570879048691 8.147460588556822e-05 4.236371792401375e-05 1.7084797692442402e-05 5.257238249598643e-06 1.1724020986589141e-06 2.2477297367143087e-07 1.4006856991893908e-08 0.008216931865757256 0.014726031132709583 0.026994975337705403 0.04800893698115228 0.06733346063862145 0.07325467453159598 0.06469764407235694 0.04956010998553897 0.03454990232972033 0.02121752032090483 0.008152359271850271 0.03589486178906603 0.05126575391945565 0.05464942399512731 0.054864426960688585 0.05263033607029715 0.048206507304723596 0.0417930136796151 0.0339308855920061 0.025186625198084914 0.019956734719760474 0.01575381376955186 0.01179883697403553 0.00847243071492831 0.0058452060498524515 0.0038767436695173524 0.0024659579763047887 0.001494708818841754 0.0008510660590476871 0.00043888467172529676 0.00020119666704629797 0.00011045325822646806 8.587364579743173e-05 7.11184797894767e-05 5.135863374325158e-05 2.985607697747577e-05 1.3364452671268922e-05 4.422187224551139e-06 9.880016198157365e-07 1.5667445797923434e-07 1.9528512113900122e-08 0.011781392945520414 0.022716630153275255 0.038162885417904725 0.05662238309593052 0.06848931232014543 0.06745708205103276 0.05733491054580775 0.045133679082285515 0.03390592141702048 0.023173233701535265 0.012660217582821567 0.01643826665679288 0.024112933673268225 0.029127229621696036 0.031495357138263944 0.0319030948606128 0.030653291453328374 0.028003899790531868 0.02422958678241832 0