# vtk DataFile Version 3.0
vtk output
ASCII
DATASET RECTILINEAR_GRID
DIMENSIONS 41 41 1
X_COORDINATES 41 double
0 1 2 3 4 5 6 7 8 9 10 11 12 13 14 15 16 17 18 19 20 21 22 23 24 25 26 27 28 29 30 31 32 33 34 35 36 37 38 39 40 
Y_COORDINATES 41 double
0 1 2 3 4 5 6 7 8 9 10 11 12 13 14 15 16 17 18 19 20 21 22 23 24 25 26 27 28 29 30 31 32 33 34 35 36 37 38 39 40 
Z_COORDINATES 1 double
0
POINT_DATA 1681
FIELD FieldData 1
Concentracao 1 1681 double
0.0 1.4673299198947255e-38 1.1032505812800547e-34 7.311298619778042e-31 2.660295521767664e-27 5.428410853967596e-24 5.9924981362208235e-21 3.1918310292592798e-18 6.729990266384483e-16 5.6617933411399566e-14 2.2045385072071453e-12 4.667634278676159e-11 6.052777662260601e-10 5.243776434162929e-09 3.238643037289183e-08 1.4982211949787025e-07 5.400029033823184e-07 1.5658308577016608e-06 3.7534310805877494e-06 7.6171190950677014e-06 1.337318964912955e-05 2.072650311471651e-05 2.89097397353747e-05 3.6962180794467e-05 4.4059391821323975e-05 4.9676926248676517e-05 5.3563916098450546e-05 5.5604955379547567e-05 5.574748058923081e-05 5.4056008131191784e-05 5.083276544005589e-05 4.6665874800568825e-05 4.23121732151461e-05 3.845908174608175e-05 3.5513853202932354e-05 3.354765398505108e-05 3.239349141169936e-05 3.179922944322188e-05 3.153825048292686e-05 3.144910446662032e-05 3.143114991157477e-05 2.27628617188004e-38 1.3604163568527134e-34 1.0228648077920553e-30 6.778577944416431e-27 2.4664593100741848e-23 5.03288239224629e-20 5.555868773880858e-17 2.9592657258879383e-14 6.239625264716113e-12 5.24926001029079e-10 2.0439099645234763e-08 4.327538022923326e-07 5.611756173228461e-06 4.861700927645404e-05 0.0003002666886429645 0.0013890568114215767 0.005006568547051557 0.014517402541855644 0.03479946102862319 0.07062115525981164 0.12398783460555696 0.19216314937299195 0.2680329915931945 0.3426901793248227 0.40849107275759877 0.46057333194510264 0.4966110661918932 0.5155343034634572 0.5168557078994198 0.501173435167959 0.47128954866313105 0.43265674968373474 0.39229195667188366 0.35656850696985026 0.3292621934377347 0.3110328263365132 0.30033215417024567 0.2948225295710945 0.2924028961841788 0.2915763901810819 0.2914099267972661 2.162038935756671e-34 8.205022892203066e-31 1.5898633332393617e-29 4.183157306425668e-26 1.2421186142639626e-22 2.2124739667566255e-19 2.1917449306971246e-16 1.052378709556675e-13 1.996159116395377e-11 1.5314615922513417e-09 5.523191840596126e-08 1.0955853990253477e-06 1.3424433735867859e-05 0.0001105737618986454 0.0006522507972815254 0.002892210051965206 0.01001894841868829 0.027981097978203973 0.06471373271707058 0.12689210037360793 0.21553801676989082 0.32362155637570855 0.43794004479072696 0.5441701726244371 0.6316189796339002 0.6947592910101374 0.7317880885303176 0.742121564136185 0.7255064450540556 0.6833300040618219 0.6207564824700769 0.5473415848997157 0.4748602472939104 0.4133721803609604 0.36809186679388733 0.33892863488323743 0.32240383169291725 0.31417910796680265 0.3106771990147005 0.3095135029744267 0.309285063649259 1.3978924564352037e-30 5.727504843755108e-27 3.492230692510173e-26 6.749883626002894e-25 8.1918907629526e-22 1.1539464460309512e-18 9.434455185441233e-16 3.757976136966278e-13 5.97981137015674e-11 3.979850632003913e-09 1.2829346662676522e-07 2.3224259090030238e-06 2.635137250495659e-05 0.00020313477742047855 0.0011301021390209226 0.004754539226558661 0.015701156142168507 0.0419696964226113 0.0932153711194997 0.17604679551615096 0.2888114699925891 0.41994727288864137 0.5518678671557555 0.6678409992390283 0.7571044818574155 0.8154222492825016 0.8422387124545079 0.8374550064125986 0.800864033945738 0.7344445962773061 0.6452812002290347 0.5460355849995304 0.4516678611061651 0.3741946157920482 0.3189535595343158 0.2845538090707064 0.26573841034165135 0.2566973862879433 0.2529725192175322 0.2517732870976851 0.25154713941172496 4.977213678445919e-27 2.1288169098375525e-23 1.0630882033050982e-22 7.006356009119895e-22 2.2059018392848088e-20 1.144376929370473e-17 6.158178310062647e-15 1.724777219622513e-12 2.0658582681917652e-10 1.1146883761786855e-08 3.070911378473426e-07 4.916405895183791e-06 5.047134580582235e-05 0.00035766039638735956 0.001850650404198446 0.007306881936763651 0.022807730777465327 0.05796386974140265 0.12301881343890042 0.2230147697358737 0.3526576698887034 0.4962924268619904 0.6337903787233753 0.7483032735038583 0.8307474335163333 0.8788373994582415 0.8930827793861214 0.8734409373119307 0.8194908448152178 0.7337064558298811 0.6248344733927864 0.507926113961234 0.3999984434775548 0.31387056750203635 0.25426248183687467 0.21833628765346613 0.19937670888575348 0.19059965303832876 0.1871114625389504 0.18602908442651192 0.18583433033354782 1.0017379371506964e-23 4.391813184202942e-20 1.9217669560572604e-19 1.000308728436785e-18 1.0188241672834414e-17 5.108741256227093e-16 8.369276929743243e-14 1.180490636892774e-11 9.056801135019991e-10 3.623322037454732e-08 8.075176331221114e-07 1.1016925239180062e-05 9.96453013660712e-05 0.000636463171503789 0.003017297803223988 0.011051049904003235 0.03230971353890948 0.07753193891179531 0.15642992858934066 0.2712464749032184 0.4125865387782793 0.561539479044717 0.6971737911610897 0.8042651198384259 0.8762768273968531 0.9128286008721165 0.9149962118542381 0.8823697726837625 0.8142059577302188 0.713521317009043 0.5905839016900849 0.4622818643031154 0.34683486362477595 0.25706298831807434 0.19665833686311826 0.16139402785055568 0.1434430998094133 0.13545271722138294 0.13240112426733766 0.13149176843319627 0.13133740588484089 1.0969977202820221e-20 4.8829381622073583e-17 1.9225955892371082e-16 8.274825069074369e-16 5.465019068069968e-15 7.780661351958418e-14 2.6603702333804863e-12 1.3121835519158653e-10 5.323467623031471e-09 1.4207905252296242e-07 2.40292472115755e-06 2.679857908529549e-05 0.00020746326405324193 0.0011694141413354144 0.004999604582446534 0.016782171246160882 0.04553765586725135 0.10246030107212281 0.1955319507103623 0.3231718128556325 0.4718888574954385 0.6206801720353636 0.749460216228486 0.8458084478704009 0.9060079959191685 0.9311834187435917 0.922419962389137 0.8786578126490177 0.798880401026558 0.6867818697958914 0.5540484362836213 0.4189375128615409 0.30018808615429593 0.21006117609253894 0.15101707882423573 0.11759181234476078 0.101178080071673 0.0941626409515192 0.09159647108655092 0.09086724002785375 0.09075196733068357 5.822247790951111e-18 2.617253659793306e-14 9.308927785295339e-14 3.32977693924627e-13 1.540625296677146e-12 1.0789103608831496e-11 1.2517700583550427e-10 2.1735445160440354e-09 4.1695654439599214e-08 6.766121416963332e-07 8.155946183147212e-06 7.127187442795743e-05 0.00045851333383896116 0.002232971929951052 0.008475738782612133 0.025768188449739923 0.06432087350901025 0.1348064378781488 0.24218909263909832 0.38036379850669494 0.5322621488554267 0.6762400700107272 0.7945503099856123 0.8782546387220016 0.9263050185074393 0.9407264291257168 0.9221270710944138 0.868675492083726 0.7792445107336433 0.6583667657597951 0.5190389553893375 0.3804533206641655 0.2613189954053198 0.1729461119342769 0.11649408204170196 0.08546162687150842 0.07074957371773052 0.06471697147168572 0.06260975641404085 0.06204232295126599 0.06196020794217241 1.228592580361954e-15 5.55998607745171e-12 1.7817848712353153e-11 5.3538443741288475e-11 1.8622984182110354e-10 8.282670796547061e-10 4.993219010197032e-09 4.043978333586403e-08 3.9006517955327417e-07 3.7470629269899004e-06 3.0944443699266083e-05 0.00020496879381769735 0.0010687862411170087 0.004413957181334177 0.014668111121141641 0.03997199647953527 0.09107231736251405 0.17680003068742067 0.29786512996573583 0.44347427769573644 0.5940884827363999 0.7290949298571987 0.8342476724771675 0.9043210844346917 0.9404202515617628 0.9448113437066058 0.9172552553159199 0.855172332886073 0.7575585581958283 0.6299301595494696 0.486453670345015 0.34685334710107085 0.22935474623928226 0.1440593177765612 0.09084661886307524 0.06239198052576138 0.04935055829118016 0.044220224955726875 0.04251375573406259 0.04208082082637175 0.04202493535209178 1.0369898526878252e-13 4.71517032406471e-10 1.3794057048138975e-09 3.598568983653387e-09 1.0143370231652699e-08 3.332707337463557e-08 1.329055846895897e-07 6.474631075215353e-07 3.6734852219001154e-06 2.2041509609837017e-05 0.00012501032284454453 0.0006195987001244263 0.002580286098332835 0.008922095981861744 0.02569413199363895 0.062270143719687344 0.1287486003063201 0.2305634682047958 0.3633398731623604 0.5121648960876635 0.6567010490703465 0.7790293973888542 0.8691544410483067 0.9253054839284021 0.9499802980869279 0.9450496164846458 0.9092090340087777 0.8392802026450115 0.7346439735534381 0.6019074751506768 0.45622337585883493 0.31746399477399456 0.20300689467847036 0.1215882715669818 0.07189461532735042 0.045991842253875516 0.03449166399974032 0.030147480465648576 0.028773766324089324 0.0284477235155066 0.028411477654266177 4.05572034318927e-12 1.850429426381212e-08 5.0172459984600936e-08 1.1704848961894209e-07 2.818942690614972e-07 7.478830686231281e-07 2.2536146903439073e-06 7.774638090038158e-06 3.0038444720244902e-05 0.00012340801817725702 0.0005009730882312011 0.0018820950617697203 0.006263709941008101 0.018070639982898734 0.0449053109643108 0.09642212512462946 0.1804028399230805 0.29749136849792085 0.43816821216518204 0.5848665890477182 0.7184839088547108 0.8251382422161581 0.8992496739725687 0.9417890654953347 0.9557834189285028 0.9421848916414857 0.8985680198138037 0.8214035881309265 0.7107249227090279 0.574277375761915 0.42797976381652847 0.29148804814793755 0.18104834585641233 0.10395994058337138 0.057842966311967295 0.03435638541529792 0.02422964763377925 0.02054969486426931 0.0194440767192609 0.019200056039695258 0.019177749030089102 8.630442326071115e-11 3.94766048464542e-07 1.0031917062314481e-06 2.136378082179481e-06 4.549401070519015e-06 1.0274240641865486e-05 2.5246062698903698e-05 6.798301439980957e-05 0.00019823923492521918 0.0006074207325122961 0.001866310855168064 0.005478381648456247 0.014784501226712755 0.03581107816046534 0.0769848576148721 0.14660357198230112 0.24837054566714167 0.37748157684236255 0.5203376505000145 0.6589021934636563 0.7772410170395653 0.8662487347336822 0.9242762817076811 0.9540263782401941 0.9582088499361168 0.9365140677329796 0.8855117172184632 0.8016392999871557 0.6858182816817009 0.5469164715992476 0.4013587559541444 0.268254214950636 0.16250228766380195 0.08996544322540799 0.04734779958367595 0.026087433678663643 0.0171585553497674 0.014028771373409557 0.013134625805688782 0.012951997113203405 0.012939242059642014 1.125208798629981e-09 5.1567681894975065e-06 1.2385646693752235e-05 2.4427147340393943e-05 4.705367074316235e-05 9.355156057835164e-05 0.00019644521397563062 0.00043852401271070145 0.0010334236328830865 0.002522134616925835 0.006181881471194254 0.014703641159989343 0.032919924957449956 0.06787880962149358 0.1273037453852129 0.2162093367768389 0.33308457757909504 0.46826063685914937 0.606196353565758 0.7307902363932615 0.8306236215735525 0.9012847563410636 0.9440316995778848 0.9621728708612438 0.9574239779856073 0.9280997699892953 0.8700263480254525 0.7799567940783244 0.6598833348287569 0.5197087243002843 0.3760745917508427 0.2472439143206532 0.14662811400190393 0.07870459233361432 0.0394297277264709 0.020185475371010026 0.012286876692135356 0.009606804593897504 0.008877089570306838 0.008739493378194144 0.008733013714460712 9.803265618773961e-09 4.4994967656686275e-05 0.0001027608730329097 0.00018967500840083056 0.0003357951663433981 0.0006013873273353541 0.0011131768103754538 0.002143342986422821 0.004274561042967424 0.008716764703218931 0.017796926394020026 0.035504631932961 0.06764010843833804 0.1208578447664221 0.20024389704307904 0.306120117755023 0.4319459852161826 0.5651375720565457 0.6908619172687969 0.7968545843998117 0.8766123233605033 0.9295408526733873 0.958490422086057 0.9663608843270619 0.9534649946773681 0.9168590839013233 0.8519972534355981 0.7562833480171679 0.6328857339060562 0.4925816596082631 0.3519261250606234 0.22807720863497452 0.13287839867388393 0.06952044426508854 0.033386631774551596 0.015946915807547188 0.008926222212374253 0.006610478777573777 0.00600729309358316 0.0059022265721136655 0.005899617321471555 6.089920475653218e-08 0.0002798447627781431 0.0006104421091225772 0.0010625958549459976 0.0017492027673288275 0.0028686598987558297 0.004784406756750268 0.008168511575013537 0.014240982784825936 0.0251273871317089 0.04420820424296732 0.07622134703132444 0.12660822987270057 0.19980457180382358 0.29680279500411616 0.4131667485876307 0.5390424494687968 0.6616413825499432 0.7691361735965208 0.8539617530152567 0.9139132718124796 0.9508134336430257 0.9678179589362469 0.9666949091702935 0.9462586085136381 0.9026121825482853 0.8312605344006093 0.7305437025747469 0.6048216507389618 0.46551721296111975 0.3287889349392326 0.21048109928694134 0.12085275485192011 0.06193762233410264 0.02871972017236216 0.012880701417903408 0.006602873794846427 0.004580327701478376 0.004073636338069072 0.00399168600465679 0.003991350758590317 2.8339942726702814e-07 0.0013035046238235794 0.0027254301244975373 0.004500702020955447 0.006950997295482755 0.010569421622674376 0.01614387970631479 0.024939634876115505 0.038927452211827224 0.06100943144256387 0.09499442766968848 0.14512496907739447 0.21485809762707803 0.3050973514913476 0.41262987552166985 0.5298027039864192 0.6460589140032584 0.7508772769377625 0.8366411824957981 0.9001464365076514 0.9421259007354033 0.9653520348135284 0.9722738034555427 0.9631904332900347 0.935601457041411 0.8850892578444004 0.8076247712965324 0.7026791991543038 0.5757208899053481 0.43853756864677285 0.3065938970323668 0.19426348779219385 0.11025708350531578 0.05561045189570219 0.02507451684436905 0.010645340695522823 0.004992228695638208 0.0032042445232942493 0.0027705943803881436 0.002704822544086582 0.002705615494208596 1.02759716138955e-06 0.004730057131501624 0.009504581421786378 0.0149601697803874 0.021832316840512195 0.031080080981516642 0.04403030682210422 0.06252072367845157 0.08899001345487803 0.12643979916628684 0.17798476204619634 0.2460205982884853 0.33101235532470474 0.43034028792698303 0.5380126618524058 0.6455999164173521 0.744283957641442 0.8271558495550971 0.8907000493077413 0.9348212251209482 0.9616388195564228 0.9736557492397715 0.9720554782240328 0.9556956584540041 0.9211461290678445 0.8639477889679845 0.7808876297910623 0.6726525159287473 0.5456435061321157 0.41169514233754845 0.28530577457229644 0.17928552529036004 0.10087510800570727 0.05028835195007542 0.022199795633831534 0.009004067392487762 0.0038728748602321157 0.0022709652698531075 0.0018920218562542355 0.0018374035565350074 0.0018386917492093104 2.997652409823463e-06 0.013806797963979545 0.02671835508549381 0.04024281621486018 0.05581943858722866 0.07499723067327292 0.0995628609938888 0.13159335066490227 0.17335649708915615 0.22702452218887828 0.2940417031829745 0.374333582172229 0.46561247558345437 0.5631238155609016 0.6602971947716852 0.7501338408612223 0.8268694998374396 0.8872185802962509 0.9306349485983946 0.9585916362556837 0.9732741495360641 0.976187205404413 0.9671283066336503 0.9438185838633865 0.9023863104573278 0.8387833437926494 0.7508502963221921 0.6404576666403144 0.5146760761968247 0.3850597378089914 0.2649125224378446 0.16544064768953481 0.09254139806938615 0.04578571259809656 0.019916187636076523 0.007792597089617901 0.003093823357026733 0.0016378591536400867 0.001299234952553779 0.0012520912525695986 0.0012533955920893368 7.228544224642001e-06 0.03331058579200289 0.062185907633860414 0.08992771689924854 0.1191543904625928 0.1521260049490719 0.19091503959882924 0.23739954343005926 0.2930714108145841 0.35873780766606156 0.433965984768331 0.5167239867669058 0.6033026962723441 0.6887328359469042 0.7677219729049672 0.8358168171767459 0.8903024714194043 0.9305026675193829 0.9573878832383365 0.972681859755566 0.9778210831219785 0.9730796799238373 0.9570865113249025 0.9268898390352799 0.8786738707975695 0.8091520009279474 0.7173350142739777 0.6061170746229959 0.48291918488322766 0.35870274147484593 0.24540327293615505 0.152641780528428 0.08512548407940292 0.04196345657295868 0.01809506206898534 0.006896941759078533 0.002552440817636548 0.0012087347913485496 0.0008989410752057326 0.0008565142860418433 0.0008575652306534896 1.475504584682961e-05 0.06802232744885812 0.12268003726278214 0.1708334015029077 0.2172015420391095 0.26512393533352435 0.3169784102486172 0.3743179644657908 0.437786314701305 0.5070302999100033 0.5804483954228947 0.6553063151741183 0.7280461312722097 0.7949106022747844 0.8526994118984158 0.8994094065287483 0.9344481707281876 0.9584419064019299 0.9726468737546643 0.9782263361472023 0.9755807423845684 0.963904959530038 0.9410754680777349 0.9039660838899224 0.8492423940637206 0.7746095450849475 0.6801989982857387 0.5696792903701826 0.4504798132611486 0.3326866731353917 0.22676089851833076 0.1408078794872659 0.07851822806124047 0.03871463457247148 0.016643354745803612 0.006238272635656984 0.0021791818402416958 0.0009188597643247552 0.0006284728061478604 0.0005886767970656545 0.0005893211817139304 2.6049950969898864e-05 0.1201343126087097 0.20958786630021783 0.2818064204255975 0.34524102868703843 0.4051827455111864 0.46480139691347716 0.5257225448289665 0.588275394435865 0.6517402409831629 0.7144412475879369 0.7741151836026503 0.8283473190336565 0.8750651665930909 0.9129444136499669 0.9415798195747818 0.9613767035392012 0.9731852524986148 0.9778228427533309 0.9756100436077354 0.9660234346291852 0.9475485749407171 0.9177886815118487 0.8738878682755618 0.8132873296657858 0.7347443144854181 0.6393436985242249 0.531219575579162 0.4174592444605505 0.3070530470636726 0.20894983224121547 0.12985528480249633 0.07262403630072976 0.03595363255307528 0.015493142462706262 0.005761999403884268 0.0019271065781184915 0.0007248416841344853 0.0004457737174615078 0.0004069233247084986 0.00040706788267320677 4.058490438106054e-05 0.1872180219540921 0.31637167431168106 0.4118447848609613 0.48815113147143296 0.5538297685912877 0.6136819013681787 0.6701184270279051 0.7239355388532929 0.774852229782343 0.8219053278857019 0.8638720565734636 0.8996392347347327 0.9284820503269515 0.9501966711426726 0.9650482417609232 0.9735604255444568 0.9762213272945766 0.9731837109152873 0.9640288026745115 0.947640839230387 0.9222357386924925 0.8855793066843348 0.8354021941633798 0.7700546829099835 0.6892462799092006 0.5947690948804382 0.490847010826999 0.38394982534730926 0.2818187164955218 0.19191453910307213 0.11969174162498748 0.0673516624701174 0.03360941514096049 0.014593526193381709 0.005430584473343998 0.0017649403626885968 0.0005977399276969451 0.00032266983591393945 0.0002832867755067579 0.00028286126318261684 5.6877244495263924e-05 0.2624359646916354 0.4301882575193631 0.5436750242817248 0.6259973824204184 0.690181629321263 0.7434431141012768 0.7895587461048462 0.8302578911081316 0.8660929084837575 0.8970091482133157 0.9227287169872201 0.9430419117277019 0.9579289300765934 0.9675712585695625 0.9722499566884596 0.9721842013538857 0.9673564629156812 0.9573703896379323 0.9413721968320191 0.9180489964886358 0.8857436707949523 0.8426854398517555 0.7873545554221023 0.7189694239534324 0.6379885983589225 0.5465658296514502 0.448711158296663 0.35003316831284825 0.2569678344092528 0.1755704077457934 0.11021247927366959 0.06261081863573846 0.03161932328658438 0.013905566614809328 0.005218457362104374 0.0016723064034338685 0.0005184988665803038 0.00024033729696321896 0.0001989731549544512 0.00019790951427473892 7.302102859258799e-05 0.33698975748843096 0.5367645486182064 0.6604874887792666 0.7417202955970806 0.7986984624514388 0.841291227951077 0.8747241809937927 0.9016719556447156 0.9234137874254361 0.9405264558439629 0.9532690735550117 0.9618089821701404 0.9662953067233985 0.9668512808057478 0.9635099810350146 0.9561330603790924 0.9443360672451875 0.9274505951040433 0.904528475676972 0.8744017257125516 0.8358083511822657 0.7875885068353469 0.7289561887849919 0.6598204835905038 0.5810975840967013 0.49499023207617454 0.4050160563371506 0.31579225866034705 0.23246277332285917 0.1598103117070345 0.10129777658306527 0.05830678339946071 0.029924294573734477 0.013397762273950902 0.005108316426634976 0.001636502085636647 0.00047492522881193794 0.00018630009583944852 0.00014136750777115676 0.00013956142067005314 8.73443920552501e-05 0.4031558929496639 0.625182134938748 0.7511687147220661 0.8258130525726022 0.8724082916491721 0.9031124484157558 0.9242438019622311 0.9390513569120047 0.9491730906172203 0.9554239189084207 0.9582010775043124 0.9576899060800704 0.9539431129229206 0.9469010316127972 0.9363700228317183 0.9220075678038872 0.9033074271656426 0.8796173184895179 0.8501639121581731 0.8141349284253537 0.7707705066305762 0.7194943948624194 0.6601016894531673 0.5929360503640647 0.5190809084627835 0.4405021558622066 0.36005581817477994 0.2813298798647768 0.20825577657505098 0.1445135071130785 0.0928176208435236 0.054341749725558115 0.02846731644056407 0.013043763780288544 0.005089077514033524 0.0016506102823439187 0.0004597376797615383 0.00015244004663594643 0.00010201197496480511 9.93017999407114e-05 9.875741089040142e-05 0.455893563652129 0.6895964562421506 0.8111043187747977 0.8756225808525362 0.9106236610574908 0.9298109731732864 0.940014244942626 0.944616032355948 0.9452580151875102 0.9427095091436305 0.9372878546727267 0.9290711308677846 0.9179874347037232 0.9038635834133041 0.8864325099546018 0.8653508557928244 0.8402105493115702 0.8105623055211709 0.7759560749467943 0.7359755489953284 0.6903088578574837 0.6388318219775759 0.5816793385930576 0.51937431920105 0.45289716167022204 0.3838078550918498 0.314226791621379 0.24676325039654512 0.18428249912034406 0.12952555133755622 0.08461403281375322 0.050596545038585225 0.0271796001572141 0.012813759857639285 0.005151244193415443 0.0017111348131527732 0.0004690894591145458 0.00013364104443469238 7.524220881738345e-05 7.136627282921853e-05 0.0001067222778172959 0.4927133144268717 0.7279697204977809 0.8395137340569536 0.8914915783038583 0.9143296359710238 0.9224537635361882 0.9226816568886917 0.918199283403207 0.9104488802447384 0.9000363957297124 0.8871586034711186 0.8718122381067135 0.8538882360009395 0.8332245611384218 0.809628981845573 0.782896533808956 0.7528248422120256 0.7192325906682472 0.6819743148465989 0.6409506887711307 0.5961635746389878 0.5477090402682082 0.49585283076264963 0.4410684817710512 0.3840798787947925 0.3259594408444366 0.26812715402622095 0.2123286798031499 0.1605365745534797 0.11472440352604064 0.07653919385726447 0.04695353718482075 0.025991725492416965 0.012678757235784129 0.005288265768496232 0.0018182125243289477 0.0005021791753739654 0.00012708379306191012 5.7333868239849105e-05 5.18715756209893e-05 0.00011098802824100787 0.5124498311896726 0.7396141387638118 0.8362342325856136 0.873366807447114 0.883149843064525 0.880039926005924 0.8704782823165473 0.8572723766059135 0.8415932835732765 0.823869799431475 0.8042127325915548 0.7825989261560587 0.7589588882403193 0.7332180519762246 0.7053170631225463 0.6752173616455447 0.6429118668831534 0.6084226156391356 0.5717989260361228 0.5331184220882795 0.49249437823677233 0.4500826868531649 0.4060959583046771 0.3608391643187436 0.31472159208197437 0.2683558673333951 0.22255737302123144 0.178377421687523 0.13707652367668746 0.10001158198135059 0.06844478010303734 0.043282545908888546 0.02481948315633384 0.012600732598365147 0.005491388675015762 0.001973643460247161 0.0005605873194898324 0.0001317416007515357 4.59113791743123e-05 3.818060650594655e-05 0.00011143962544979378 0.5145680761814063 0.7242368147155565 0.8010427019255597 0.820826514247653 0.8163389070077001 0.8015336428291062 0.7822296307031547 0.7607508848991226 0.7379589882468401 0.7141018417053182 0.6892097702761705 0.6632494858411858 0.636190693364128 0.6080318553876081 0.5788043291306502 0.5485695859980266 0.5174159355753922 0.48544621758134626 0.4527703817599289 0.4194934469684911 0.38571230654942606 0.3515139860942651 0.3169877751880815 0.2822437731656225 0.24740745284532178 0.21272428674462987 0.17855518217552283 0.14543306484244758 0.11407601294120474 0.08535830714597116 0.0602112502881308 0.039451519662600416 0.023566368977465616 0.012530398016324528 0.005746931699823105 0.0021797313531357458 0.0006480800769236469 0.00014824852102933144 3.96129974884364e-05 2.8500159531416863e-05 0.00010819621703208026 0.49961601752776125 0.6831581720258685 0.7358376014815432 0.7362429534969032 0.7167830110781731 0.6904674498312373 0.6622780327990898 0.6339384999290728 0.6059271191998314 0.5782480673899092 0.5507931797243762 0.523455828408633 0.4961697613237252 0.46892144844336214 0.4417367818553941 0.4146715121847506 0.3877986679848225 0.36119282667367053 0.33491974092795856 0.3090241590314679 0.28352620950244894 0.25841334684967454 0.2336514130951795 0.2091964152186367 0.18498817123362768 0.16102513445878056 0.13737125146394946 0.11420601524637981 0.09186179638935171 0.07083788947692371 0.05177103404177941 0.03534222777907704 0.02212476923942045 0.012402209849662253 0.006031712166945373 0.0024370865654655747 0.0007703047452924884 0.00017897937614526883 3.794066931086775e-05 2.1607516842942405e-05 0.00010184836046839253 0.4703201778574408 0.6214219423903632 0.647547454943442 0.6281760636131997 0.5945390437949656 0.5583009808612015 0.5233885940413833 0.4907755629687277 0.46043882131601876 0.43203778170534785 0.4052253993004564 0.37972684794809575 0.3553484288804154 0.33197115197701754 0.30953010088930566 0.2879934420590519 0.2673519935007012 0.247597254259698 0.228714083392119 0.2106685007623765 0.19340626475213948 0.17684377083063657 0.1608747994041779 0.14537956751471034 0.13020473205218855 0.11522995947848297 0.10035907244549948 0.08556637500346838 0.07092885987168128 0.05666507847910031 0.043146558878171114 0.0308722238849808 0.020385467371619028 0.01213332301763896 0.0063075540806587565 0.0027410359625554656 0.0009340192386526832 0.00022832008702097033 4.1286432442149395e-05 1.66660625539823e-05 9.356054358840128e-05 0.4320587732977634 0.5484694334056998 0.5486973890558168 0.511531175463833 0.46635165940391565 0.423160911595481 0.38464395263003787 0.35090365383260663 0.32131372519674695 0.2951047554399687 0.27162212386254525 0.2503574919816478 0.23093743505881045 0.21309320934007292 0.19663556640118626 0.18142756369431964 0.1673638237177741 0.15435793628621275 0.14232908327375224 0.1311934600745976 0.1208583712379467 0.11121838717491829 0.10215300926570922 0.09353148096287262 0.08519514181630299 0.0769959832178058 0.06878598399242469 0.060446686321729996 0.05191245607811513 0.043208461438109406 0.034483482053834655 0.026028425394336332 0.018255692894644168 0.011625800012077522 0.006516046357678435 0.0030761798900242744 0.0011452566042864792 0.0003029610890201887 5.116718861475101e-05 1.3101476279750502e-05 8.484657409451502e-05 0.3918241014973436 0.47605418675569783 0.4542424864861713 0.4033442929177993 0.35048793908721493 0.3038640409523073 0.26486081042389165 0.2326828565173242 0.20608638748720837 0.18386898215580827 0.16506740981127235 0.14894837756748744 0.13496822751734966 0.12272831007755877 0.11193504969452096 0.10237201026927349 0.09387311948645716 0.08630697731553763 0.07956330563902353 0.073545245894371 0.06816017414555778 0.06331638356945798 0.05891771101582126 0.05486498919208501 0.0510376856446687 0.047317160826165425 0.043572512294299655 0.03967149758781812 0.035496414636186246 0.030966203730676285 0.026070052100250304 0.020902952213362334 0.015690717774761144 0.010780801604755865 0.006575624710643396 0.0034088281117726615 0.0014053279992470853 0.0004118517209480792 7.071356248813219e-05 1.0518500221336097e-05 7.709655616450876e-05 0.35603762039382575 0.414338093950295 0.37635141339364026 0.3166293975198348 0.2599975072795166 0.21292686593304783 0.17562185945242187 0.14649567917054446 0.12377459079790057 0.10590488885618023 0.09168668074550203 0.08022319819165226 0.07085804381912263 0.06311495915643253 0.056646691836835385 0.05120084620286706 0.04658992264955004 0.042673002614220905 0.0393413926973623 0.03650783141459225 0.03409974778765968 0.03205303860668009 0.030307277414102288 0.028804190413332986 0.027473711148983407 0.026245345494158433 0.025033891444677367 0.023742096400177572 0.02226195923378808 0.020484438225166178 0.018317696589924094 0.015718848237878745 0.012732495160199484 0.009524903940480405 0.00638726841160881 0.0036789192071138076 0.0017035461975584674 0.0005649523510194643 0.00010545277238574039 8.64479708466804e-06 7.114840341588084e-05 0.32857030772847134 0.3687066833177668 0.320587421318736 0.2563676063957855 0.1988532214658252 0.15309697087542076 0.11836980418395607 0.09249286523303019 0.07331805099850879 0.05906403143989256 0.0483915469961367 0.04032127535919207 0.03414912354920802 0.029373587072488584 0.025637340608682564 0.02268649361437968 0.020339291120172406 0.018465028804487978 0.016968864820680968 0.0157813664649903 0.01485033839972604 0.0141357255844806 0.013605043469370772 0.013231073004361051 0.012983131207604408 0.012831459359769568 0.012737245106075634 0.012650446834222135 0.012504826401090552 0.012217019258321509 0.01168890488899696 0.010822066831860273 0.009544367422127383 0.007852135101760138 0.005855197967839336 0.0037964687876580103 0.0020058117742080424 0.0007688745000792146 0.0001642153239989374 7.292889149877829e-06 6.716444762343845e-05 0.31017286662198046 0.3392186938619024 0.28574078514117945 0.21991416483113665 0.16301935335972778 0.11909002751350087 0.0867655301204771 0.06349113209700294 0.04690212154880256 0.03510324229271368 0.02669787011510752 0.020684445604062317 0.01635600319483078 0.013217901843925385 0.010925328431111454 0.00923865064701574 0.007991197210918548 0.007067038372688798 0.006385793957022805 0.005891640007779352 0.005546062392426465 0.005322715152036747 0.005203669797092555 0.005177332697519692 0.005233729410186804 0.005365901892058172 0.005564661985360293 0.005815859372520583 0.006095779665093882 0.006365651871279812 0.006