# vtk DataFile Version 3.0
vtk output
ASCII
DATASET RECTILINEAR_GRID
DIMENSIONS 41 41 1
X_COORDINATES 41 double
0 1 2 3 4 5 6 7 8 9 10 11 12 13 14 15 16 17 18 19 20 21 22 23 24 25 26 27 28 29 30 31 32 33 34 35 36 37 38 39 40 
Y_COORDINATES 41 double
0 1 2 3 4 5 6 7 8 9 10 11 12 13 14 15 16 17 18 19 20 21 22 23 24 25 26 27 28 29 30 31 32 33 34 35 36 37 38 39 40 
Z_COORDINATES 1 double
0
POINT_DATA 1681
FIELD FieldData 1
Concentracao 1 1681 double
0.0 2.5469217825659145e-45 1.963397095797895e-41 1.4128059593207052e-37 5.871977461891096e-34 1.4850054944232787e-30 2.318494976988763e-27 2.184473824241297e-24 1.1664333151723407e-21 3.197934114446589e-19 4.1603520777884955e-17 2.7053042826135065e-15 9.729631498935059e-14 2.1332084171541263e-12 3.086860045291339e-11 3.1346034358954545e-10 2.3449724957161445e-09 1.342650418382274e-08 6.068972869228303e-08 2.2217243842713888e-07 6.731276835193876e-07 1.7195127339785417e-06 3.765743040359514e-06 7.178695356633116e-06 1.2087134019555485e-05 1.822408136753558e-05 2.4944149796552275e-05 3.139716310218292e-05 3.6763230839101774e-05 4.04205189785082e-05 4.202128369034118e-05 4.1534167415881924e-05 3.928743452456163e-05 3.595240134559042e-05 3.237919613316386e-05 2.9312478179047577e-05 2.7148972764145414e-05 2.589308092592197e-05 2.5305224061131034e-05 2.5098244735867584e-05 2.5055169041800885e-05 3.8942080179639695e-45 2.3613462832378755e-41 1.8203387581111991e-37 1.3098651571534585e-33 5.444129556630491e-30 1.376804041980226e-26 2.1495632626387546e-23 2.0253072477576636e-20 1.0814438795415803e-17 2.9649241240460543e-15 3.857217753247823e-13 2.5081886128207333e-11 9.02070465396786e-10 1.9777771746660552e-08 2.86194320717643e-07 2.9062078872792567e-06 2.1741115588857144e-05 0.00012448213356362504 0.0005626771354315383 0.002059843632847185 0.006240818090698043 0.015942244599556503 0.034913609804786784 0.06655636507927938 0.11206433266796546 0.16896226298437986 0.23126652657262411 0.2910948223971785 0.34084564000340417 0.37475372392585904 0.3895950112731957 0.38507877441004307 0.3642484748748819 0.33332813701627373 0.30019961730527905 0.27176693008158365 0.2517082635563111 0.2400644213910837 0.23461418089978966 0.2326951982919864 0.2322958274484114 3.919306261462796e-41 1.5040076498734804e-37 2.452848912168188e-36 7.004539900900756e-33 2.4149367677587584e-29 5.426043367697589e-26 7.783147111126359e-23 6.849792527374703e-20 3.4374006759467596e-17 8.854544218857763e-15 1.0843467459062596e-12 6.672925688699691e-11 2.285678509404269e-09 4.797711100320097e-08 6.673975290966189e-07 6.537862557616141e-06 4.730515692434352e-05 0.0002625200331635166 0.001152152184347522 0.004101002818054971 0.012095087610353774 0.030106535876690262 0.06429961313258102 0.1196282416831926 0.19671039908296642 0.28984962384766955 0.38801047788196114 0.47798619391045 0.5479984769723814 0.5898269570109212 0.599499978883539 0.5777518731179887 0.5307229877421802 0.46965734719360536 0.4081244995186248 0.35739268789572687 0.32275421958430245 0.30324940848123855 0.29438698344502473 0.2913545844158869 0.2907402061055366 2.7419338365414873e-37 1.128265938951071e-33 5.9766517370433985e-33 8.335516622367001e-32 1.2133859417720784e-28 2.2775297193384794e-25 2.8592766561765625e-22 2.253327629123643e-19 1.0217550828345929e-16 2.381441587790112e-14 2.657623440173343e-12 1.508292470298109e-10 4.819796651746631e-09 9.528000641200034e-08 1.2570172671765133e-06 1.174411840404636e-05 8.139974820067307e-05 0.0004343501288552027 0.0018385547853399088 0.006327731215907468 0.01808466010970571 0.04370497643324033 0.09077529406597391 0.16450335440935362 0.2638747563239731 0.3798547272030842 0.4974881220566302 0.6003561138194414 0.6748490340762188 0.7121933538833186 0.7088102493928843 0.6668262945861478 0.595087370537753 0.5087157139696297 0.4252642681825302 0.35858915933296487 0.31433979859073624 0.2901209530866841 0.27943452748514597 0.27588537134204427 0.27518810260756005 1.1130862883351562e-33 4.770307713997176e-30 2.1012892005079173e-29 1.0502780089729985e-28 1.7137673826337506e-27 1.3640890635634065e-24 1.386779197513809e-21 9.17701238182795e-19 3.535516635670215e-16 7.051213405622052e-14 6.860789372667485e-12 3.4748663114629075e-10 1.0104409219263356e-08 1.844666165154038e-07 2.2724957899554508e-06 1.9996254324484947e-05 0.00013141939327397355 0.0006685271735011414 0.0027098737508232363 0.008965325481495645 0.024709762047833813 0.05775621645783676 0.11633573118728388 0.20494147339339916 0.3203054904197294 0.45027222740322054 0.5771024115009085 0.6828332808272611 0.7535727932493492 0.7810148869036811 0.7624156369010923 0.7012585531335349 0.608616163224637 0.5025407198001753 0.4032869291651494 0.3260606740742239 0.27611527074082115 0.24951592430262753 0.23812084243682405 0.23445465291038195 0.23375871197390455 2.7730477381539465e-30 1.2170147655031227e-26 4.775101998864067e-26 1.994656516216386e-25 1.197071903566816e-24 3.015229461673577e-23 1.1987074858135931e-20 5.586396969198204e-18 1.6184733249784505e-15 2.5241545603775063e-13 2.0138907922408627e-11 8.724056635458861e-10 2.2389464262167214e-08 3.68976244109134e-07 4.170609704576651e-06 3.408781561302331e-05 0.0002100384822871324 0.0010093578357162794 0.0038885324408575103 0.012290800937834688 0.03250716615216927 0.07320209596396088 0.1425552558721092 0.24361174347583792 0.3705067251292173 0.5083674574466525 0.637756815607211 0.7404336894036292 0.8032143613678372 0.8187560907490075 0.7852469738408864 0.7073598223509889 0.597959310577103 0.4772735062788832 0.3672886112837651 0.2836996328809203 0.23092395184812808 0.2035550939066788 0.19217712552984917 0.18863608107154123 0.18798923356028757 4.289763237417838e-27 1.9105244931796213e-23 6.899308823342385e-23 2.5267001011464834e-22 1.2249379018588674e-21 1.0803430689667596e-20 4.2939943496353923e-19 6.860576018290425e-17 1.1207746737035838e-14 1.1768578240390773e-12 7.06275342686911e-11 2.479269283387361e-09 5.413451331724126e-08 7.842679834220169e-07 7.973786880495707e-06 5.9609885220851155e-05 0.00034021685673151083 0.0015294281398621316 0.005556168869206023 0.016671243769292327 0.042097360016631856 0.09096477469704953 0.1707537992721108 0.2824632559847627 0.4174881751747559 0.5588026889980253 0.6862486133141519 0.7822840404109466 0.8350216227227683 0.838263995112833 0.7910701413834228 0.6991165805742159 0.5767012617691902 0.445628383687792 0.32887576992201073 0.2420188857348103 0.1884097812106875 0.16131751181464926 0.1503898570323703 0.14710688511655118 0.14653211469767355 4.0202109782607456e-24 1.8077227579423487e-20 6.105451356464414e-20 2.0051840781315545e-19 8.1684139552158675e-19 5.0155593665654446e-18 6.398230864011226e-17 2.210735909028141e-15 1.3340515537836766e-13 7.62526149123097e-12 3.0762943084645164e-10 8.185368074505491e-09 1.4558779129352434e-07 1.7992234200944991e-06 1.6098008052169148e-05 0.00010824699055660669 0.0005649288543862305 0.0023515222500333673 0.007990516501231427 0.022612712817480476 0.05423769617934258 0.11200650960015675 0.2020684280384026 0.32288681468212327 0.4632086333572397 0.6044910531542538 0.7267704773704398 0.8139090370821978 0.8556304425666209 0.8468770709363036 0.7874573671470819 0.6838841082253162 0.5515998357029314 0.4134991974742387 0.2929769342982797 0.20506747662324973 0.15195587877872127 0.12577703885262373 0.11553101123805412 0.11256397276607794 0.112068167741747 2.141511674208631e-21 9.692707358750512e-18 3.079645466172119e-17 9.150611963275202e-17 3.1698467387013027e-16 1.459697451409283e-15 1.0293605765721317e-14 1.2731959865016726e-13 2.659375025284971e-12 7.024141445236432e-11 1.6981089770763397e-09 3.183910119132922e-08 4.399695190175923e-07 4.489389760706275e-06 3.452604386542437e-05 0.00020522539429830984 0.0009663393238024696 0.003686180558253994 0.01162011425720442 0.030816576426274764 0.06985787271699916 0.13735422920419932 0.23748283670158474 0.36586257320008064 0.5088639497268057 0.6471730817353367 0.7618392984053091 0.8386187264485498 0.8689437271884859 0.8487817143511679 0.7785527239282137 0.6654721759841709 0.5258853851013432 0.38337793194456093 0.2613110805306139 0.173889065365965 0.12212150984450867 0.09720688629511758 0.08774149891525766 0.08510173104046108 0.08468269708451796 5.87297960196706e-19 2.6706223617224584e-15 7.979229562617028e-15 2.1474734623587874e-14 6.370572348863388e-14 2.291829527691598e-13 1.0806068616312029e-12 7.154661544480995e-12 6.803422617544881e-11 8.550704351699552e-10 1.1689719454333149e-08 1.4555463089956973e-07 1.4942177468308589e-06 1.2190785163419265e-05 7.87246187866375e-05 0.00040650908731332925 0.001704241275207284 0.005896692728664733 0.017109709972700775 0.042261151527866046 0.09011341929935411 0.16809247955120657 0.2778173998392141 0.41197243369725894 0.5550400090898079 0.6877632130261393 0.7928810728201017 0.8583458327412712 0.8772353773003881 0.8463624615362965 0.7666279639007366 0.6458411447344887 0.5010416876271353 0.3561612058007412 0.23417728234329638 0.14827981375447205 0.09835405637858544 0.07486001474501831 0.06618794270736598 0.0638601362184843 0.06351064655350158 7.659206372824376e-17 3.494731269520925e-13 9.83533539709913e-13 2.414034625101844e-12 6.247254467034912e-12 1.842097891944585e-11 6.513485082757294e-11 2.8768522738417564e-10 1.621151028332501e-09 1.1436615176588239e-08 9.233956112542091e-08 7.534297084182729e-07 5.596438693854511e-06 3.562672219330909e-05 0.00018941587069506408 0.0008368302239244407 0.0030870571603646047 0.009600817855707142 0.02545939557649536 0.05824845718559704 0.11635099548829843 0.20528425267954192 0.32367249836049256 0.46141800355197854 0.6018339541829343 0.726575029610272 0.82061851032154 0.874190966246576 0.8818258753568203 0.8409764615032008 0.7529150520114567 0.6259542889041247 0.4776417432369406 0.33195910417505187 0.2112295918587016 0.12752610719341964 0.07969802825242028 0.05765524555018058 0.0497392129850853 0.047693651322153814 0.047404085910710936 4.998307770678147e-15 2.2864215003986923e-11 6.092586866361805e-11 1.3798356921135342e-10 3.1878397422789905e-10 8.037783054256195e-10 2.2995089646426107e-09 7.669039491128845e-09 3.025966925342957e-08 1.4080146650206553e-07 7.421518199591998e-07 4.120051335282001e-06 2.2225653924140895e-05 0.00010943044708130292 0.0004736605831938101 0.0017715236243581883 0.005699559416744024 0.015819450334219373 0.0381240170599302 0.08044718107618812 0.1500516852320634 0.24985216222093184 0.3752800310666117 0.5139515603191849 0.6489095769706319 0.7635176951518445 0.845327085777015 0.8867405744887191 0.8834698433162803 0.8334008149035882 0.7380916924325599 0.6062851137322167 0.455857942887535 0.3105896057711083 0.19194021577278256 0.11082774594162947 0.06518581454130755 0.04454435872802804 0.03731885442319913 0.035519704380378436 0.03528019811283572 1.8050401222720708e-13 8.272946892785517e-10 2.1002614785039482e-09 4.439099529619054e-09 9.334392715799167e-09 2.076869289861002e-08 5.050586723419758e-08 1.3691844594143052e-07 4.1819381715645105e-07 1.4389156730343668e-06 5.46600030279002e-06 2.1994390812057524e-05 8.878575828857158e-05 0.0003413960268557401 0.0012030635692195037 0.003796049626345444 0.010606162104302833 0.026163368874140884 0.057101746857289956 0.11083357288048834 0.19266217201664293 0.30238768538116795 0.4324194336199435 0.5688988227477066 0.6955912992868538 0.7982165444521272 0.8670125048280287 0.8962862013066494 0.8826007312771614 0.8240914759164139 0.7225446162174232 0.587063764646372 0.4356879532776751 0.2917708284666649 0.17576444646359315 0.09744208875551476 0.053959239010667556 0.0346195090109628 0.028005441169508226 0.02641558736472765 0.026216794626025074 3.9748701429780005e-12 1.82451306226034e-08 4.435557324492664e-08 8.831261816498415e-08 1.715136447630533e-07 3.4443689167303203e-07 7.35897409505696e-07 1.6995550605505662e-06 4.276509480784374e-06 1.1729922966294274e-05 3.465963982366868e-05 0.00010761758466399897 0.00033891383430498267 0.0010415189939872954 0.0030211440246710594 0.008076738764730746 0.019615854631520154 0.04299033417366645 0.08490937141751206 0.15148852401602306 0.24531198063495524 0.3629107217576585 0.4942777832234231 0.6251496769552912 0.7409426181250084 0.8301459489213137 0.8855454891187239 0.902961693169071 0.8794757065049191 0.8133301202636279 0.7065093565095835 0.5684103298702832 0.41706779079287565 0.2752189043282335 0.1622145314414035 0.08673663969685703 0.045307358243589245 0.02714095805461549 0.021054312656881603 0.019638119351059382 0.019471524544714094 5.777891651141503e-11 2.655261139801485e-07 6.206529799443958e-07 1.1721233202429088e-06 2.1257651140995623e-06 3.916350372526443e-06 7.523033227456467e-06 1.5275871265381004e-05 3.299098306838928e-05 7.583151082410273e-05 0.0001840608121276095 0.0004643409330982719 0.0011889364683293753 0.0030057629970933228 0.007308488070997376 0.016730432062465942 0.035531993816518836 0.06942088186619107 0.12433596360255483 0.2041974122276467 0.3084409279374363 0.4306462430185981 0.5594141897586944 0.6812162583560765 0.783862171170982 0.8587176426148986 0.9007486661360838 0.9068276442144129 0.8742604382004823 0.801310094436857 0.6901497724238765 0.5503973543783565 0.39992450582247224 0.26068734418478284 0.15088592625978112 0.07819825988276156 0.03866387205593233 0.021526549450732783 0.015883075387085048 0.014607415831767806 0.014465826204200255 5.894407116627459e-10 2.711356582394318e-06 6.1145205018618046e-06 1.1014064950206998e-05 1.881279433043552e-05 3.218911572724878e-05 5.653461360934532e-05 0.00010318702180738274 0.00019678954584552788 0.00039239338536233313 0.0008135524762016372 0.0017347094609652706 0.0037424532852560147 0.008009835377752413 0.016670988353843164 0.033157135172851564 0.06218425252227443 0.10902737286749166 0.1779056292476718 0.2699139253386947 0.3814006325415608 0.5038898530115954 0.6258141955513459 0.7353931381831285 0.8232463035878195 0.8833939016039983 0.9124642375547435 0.9079220807549259 0.8670749807354495 0.7881770532176681 0.6735950281400193 0.5330846225892705 0.38419531581838556 0.24797239883890784 0.1414532579719704 0.07142232401224946 0.0335877362267886 0.017327273199460695 0.012045324176640653 0.01088013490222214 0.010757191551280859 4.4302536395671105e-09 2.039412618010588e-05 4.448636476706509e-05 7.67631912124812e-05 0.00012432158637550058 0.0001993982565060139 0.00032428271465887457 0.0005409299255337756 0.000930026807341767 0.001649400941694314 0.0030054474922850704 0.005582086832226134 0.0104467440925978 0.019419430237132065 0.03532635964149228 0.06203165922361779 0.10397683017966118 0.16506161130872726 0.2470600907244125 0.3481203660961822 0.46221469243905516 0.5800267677602492 0.6910333680310556 0.7859139700630763 0.8580849952879542 0.9037385997337081 0.9205830071464675 0.9062811688633463 0.8580147065658086 0.7740503575425586 0.656953425915909 0.516527110709474 0.36983795911188805 0.23691872834231364 0.13366486583447576 0.0660976000297332 0.02974288164021829 0.014202287395715168 0.009203201779677699 0.008121443087813152 0.008012138874382537 2.5486362303998907e-08 0.00011739569194832225 0.00024820753440085356 0.000411811149637018 0.0006357702191359722 0.0009631344588315393 0.0014648287332624478 0.0022614573459899807 0.003560898299655347 0.005723617614121316 0.009365539675636055 0.015508895926667574 0.02577230069772974 0.042531444549635 0.06893601032204581 0.1085940844157851 0.16478752024039345 0.2393115513181104 0.33127927642891364 0.43644510841645273 0.5475644489979513 0.6557777390121873 0.7525281442660566 0.8311764858269187 0.8875774719942904 0.9194546431776399 0.925048654117912 0.9019411120267087 0.8471554056064339 0.759028723434912 0.6403221332620761 0.5007740990496886 0.3568230789599837 0.22740659722196538 0.1273287525673411 0.06198863947236607 0.02687596536328686 0.01189616165547858 0.007103917322126218 0.006080838860186086 0.005980584287855945 1.1575170401419437e-07 0.0005334461608832306 0.0010950844133666103 0.0017522684691258822 0.002590305427471679 0.003728797647301998 0.005346280589893699 0.007717177073967907 0.011266971027423382 0.01665844611357424 0.024892988764138414 0.037432565605105036 0.056291182664434114 0.08401146050998788 0.12341573081602687 0.1770601417997997 0.24640428453032487 0.33091895139480315 0.4275167757131116 0.530637226113391 0.6331227649776022 0.7276091597493544 0.8079269622058219 0.8698875954173001 0.9111682096518063 0.9303722304216199 0.9258371164013969 0.8949237097645117 0.8345453781584321 0.7431846541320059 0.6237759536676653 0.48586790280875713 0.345130150945081 0.2193476961744052 0.12230283585743872 0.05892158582068729 0.024800410818174048 0.010219478728771731 0.005559383355675391 0.004571614401121454 0.004476488167480716 4.2577176638501764e-07 0.0019629886424093147 0.003918035374608676 0.006061532879322538 0.008612406092106246 0.011842311198649346 0.01611383354208228 0.021929681611417427 0.02999002409084869 0.041275226592203174 0.05709529419214948 0.07913439741148307 0.109392758180184 0.1499816574083254 0.20271713738416902 0.2685737969895525 0.3470347140739906 0.43570256772117577 0.5302769707583497 0.6251276593073706 0.714227854458951 0.7922539934456666 0.8553273019629072 0.9011592577248333 0.9285418625889287 0.9364039513550173 0.9229178307403246 0.8852105130006239 0.8201908903491816 0.726553753633113 0.6073606552334704 0.47183224372836463 0.3347379277021415 0.21267605600902 0.11848548424022974 0.05677422473881633 0.02338260699984404 0.00903408326519318 0.004430798032653659 0.003455612030595688 0.0033620542726424275 1.2961413100836046e-06 0.005977793574133803 0.011614030551405707 0.017410119155018635 0.0238518966471976 0.03146621396407311 0.04086756822793055 0.052811240657058015 0.06822975031572209 0.08828672128059867 0.11434412811243044 0.1479049965705435 0.1904426680964439 0.2431131634146868 0.30637521880025753 0.37958372400103935 0.4607444334704892 0.546500190956398 0.6324720604127702 0.713945605391608 0.7866001512644591 0.8471246188542816 0.8934463579874031 0.9244869411165297 0.9395335828486617 0.9374671677864664 0.9161966569074962 0.8727097093814596 0.8040330532508546 0.7091168191275842 0.5910758969710512 0.45866054420578545 0.3256183232373824 0.2073383570760446 0.11580820062657844 0.05546507981862351 0.022531329357642745 0.008241906769187542 0.0036167262499090212 0.0026307490653517326 0.0025352780715023338 3.326680175375798e-06 0.015346894309963392 0.029052246319424768 0.04227872070283057 0.056012649163334254 0.0711757963177121 0.08868011225306055 0.10948570579263601 0.13462475650895375 0.16519341045513114 0.20227224709363117 0.24680451141291979 0.29940134684360564 0.36009579618363585 0.42811361168488304 0.501734857027459 0.5783128301625099 0.6545247870262242 0.7267906892365794 0.7918038483896161 0.8469507208645535 0.8905120519237517 0.921566829073911 0.9396140631728612 0.9440001270050958 0.9333842542712673 0.9054624022981346 0.8572194380580362 0.7859214574127336 0.6907798121717776 0.574861209150702 0.446300666088296 0.31771985691481874 0.20328728663515505 0.11422633645053093 0.05494790541823259 0.022190959308526662 0.007776538720279213 0.0030442058490735497 0.002021995920073981 0.0019208966860279973 7.319330967075631e-06 0.03377381819931802 0.06234624017615935 0.08822484654396301 0.11333451059158556 0.13920721250282883 0.16713970121606303 0.1982597779503391 0.23355196948746362 0.2738436381913021 0.31974562827857306 0.37149962394309083 0.4288895613605476 0.49109784198067147 0.5566670509875665 0.6235545172224415 0.6892791562676768 0.7512584211775908 0.8070861455456251 0.8548352248294238 0.8932106050256737 0.9214935181996674 0.9393192394893689 0.9463068824542714 0.9416472283507092 0.9237777671886656 0.8903107110564978 0.838386281116345 0.765581381316529 0.671342098246051 0.5585665831521816 0.43463751167125575 0.31095741081745676 0.2004700875589319 0.11371391754085915 0.05520619470193548 0.02233659634717892 0.0075978166797457765 0.00266231280840264 0.0015744216414966493 0.001463407215099007 1.4015940524434449e-05 0.06468633383159306 0.11653027891057771 0.16060051491463812 0.2005182035969183 0.23886802785979067 0.2775492715252612 0.31792549771778295 0.3609633100966792 0.4072380187372149 0.45694723060959713 0.5098371043911809 0.565221807507122 0.6219725321651064 0.6785756484991762 0.7332952423094489 0.7843336255525306 0.8300609712609062 0.8691640706408192 0.9007440668433176 0.9242942248921877 0.9395615338010862 0.9463175459692652 0.9440804536539074 0.9318543453525671 0.9079616667459354 0.8700927437602815 0.8156602511499901 0.7425830624960424 0.6504715706625153 0.5419313994266459 0.42346921644707514 0.3051918666032653 0.1988150418973846 0.11425447644750539 0.05624835533499908 0.022970850220156894 0.007688600042568 0.0024377849738656744 0.0012482651280182422 0.0011218897151418364 2.3701120625401556e-05 0.1094022095477227 0.19245623705545964 0.25870993850181584 0.31466999472827384 0.36469386822843114 0.41170257540690613 0.4576012601788537 0.5035525301582628 0.5501191545738452 0.597379779768588 0.6449796352621651 0.692222486415186 0.7381487067317193 0.7816323863231478 0.821546371821584 0.8568606400013337 0.8867602109494049 0.9106820379101632 0.9283095927713376 0.9394812113183048 0.9440586261311176 0.9417515091725256 0.9319401062055248 0.9135268719363998 0.8848684865044802 0.8438626035538669 0.7882623325283138 0.7163084826157544 0.6276746865823335 0.524563102054361 0.4124905593849555 0.3002194610150547 0.19822419506843048 0.11583697595405763 0.05810731906534371 0.024124869241398925 0.00805403694240228 0.002352650576057916 0.0010153452930936077 0.0008662670224338946 3.587903235678351e-05 0.16563449210120762 0.28473667395157815 0.3738880914423864 0.44401585736004723 0.502167681066239 0.5528764856052045 0.598977333062524 0.642161913107697 0.683311191437022 0.7227135569675907 0.7602566424616098 0.7955459859096113 0.8280377826522212 0.8571277323889329 0.8822655467172202 0.9030067803518506 0.9190506639882101 0.9302278366141098 0.9364541897484584 0.9376516014157641 0.9336462930991273 0.9240625193990185 0.9082130351226435 0.8850264913566119 0.8530102535269308 0.8103504979427002 0.7551443616634764 0.6858912198604172 0.6022319210007208 0.5058516196678519 0.40121566221448535 0.29569527998285994 0.19850994144622786 0.11841280641376241 0.060817197350662884 0.025849039656546408 0.008719304452495165 0.0024023350848285732 0.0008564308739749393 0.000674268123843303 4.9289981085809966e-05 0.22756856204414602 0.38257597911952734 0.49142212933993445 0.571017896996212 0.6319890350995923 0.6809761050575585 0.7220825851197019 0.7577733875216215 0.7894422064931623 0.8177905444154683 0.8430784983957652 0.8653000418858043 0.8843171233856246 0.8999463776845543 0.9120269301845702 0.9204492781797179 0.9251590895924617 0.926135757514541 0.9233526310640967 0.9167189356737216 0.9060252607389053 0.8908670678854602 0.8705931381117425 0.8442537095257581 0.8105752079835515 0.7680417267225658 0.7150542602327712 0.6502812651276937 0.5732376785372952 0.485021620594641 0.38900962425209334 0.2911629104814304 0.1994190168615078 0.12191258651299142 0.0644270485715176 0.028224379567376563 0.009736323693721648 0.002597721041490716 0.0007601545132007562 0.000529588327161569 6.224369660933241e-05 0.28739771902252303 0.472833600919297 0.5949071972618077 0.6776603919718931 0.7357998062562829 0.7782916170072511 0.8105785683077175 0.8359296153138017 0.8562566946161407 0.8726504688664136 0.8856925148709024 0.8956723950431781 0.9027238240097312 0.9069086598181424 0.9082673046892299 0.9068391059957734 0.9026637766405475 0.8957664770025271 0.8861314670699806 0.8736685795891133 0.8581762096075013 0.8392997697573845 0.8164868552445406 0.7889553495260208 0.7556544861322588 0.715331786018297 0.6666127309274056 0.6082556801438621 0.539581851237486 0.46106749049513707 0.3750094078677361 0.2859661097646572 0.20054380565236332 0.1261802135992538 0.06896425593748942 0.031350436675293816 0.011184365538066749 0.002966933615320228 0.0007224384997469693 0.0004201774734543859 7.30871254226814e-05 0.33748604108983765 0.543625572327586 0.670556246069952 0.7498194063149859 0.8001533204741592 0.8326650867817146 0.8539309214470334 0.8678324949873825 0.8766391908765553 0.8816743417655717 0.8836976027498872 0.8831479020338369 0.8802876376322383 0.8752872580325032 0.8682711130038772 0.8593383170550257 0.848567761737603 0.8360101028253373 0.8216731381142248 0.8054986208119901 0.7873358796479069 0.7669091068284842 0.7437867602733419 0.7173488114836927 0.6867273564120091 0.6508724252655553 0.608564828075725 0.5585917900362861 0.5000469165126871 0.43280812165962257 0.35813625739490207 0.27921606584196756 0.2012834137516561 0.13093215526181962 0.0744054613582926 0.03533708771246239 0.013174521897310169 0.00356063617046336 0.0007474100791139618 0.0003371437186309455 8.054976504698416e-05 0.37196306327228457 0.5865366486247062 0.7093435541286577 0.7789124658663864 0.8174333077854351 0.8376474785375917 0.8468632468054915 0.849267810600766 0.8472567990479986 0.8422008394892533 0.8348890691414336 0.825787329307588 0.8151850966455969 0.8032817281491799 0.7902275118694384 0.7761453247368905 0.7611364934324351 0.7452753600060033 0.7285987077083012 0.7110878896181281 0.6926488619357869 0.6730804515774789 0.652049587574626 0.6290615246213953 0.6033958056151643 0.5741467646192063 0.5402065892469072 0.5003642438627837 0.45350879774370095 0.3989869328113545 0.3371197482253642 0.2697783143980945 0.20077924139578354 0.1356808560198072 0.08062223963663713 0.04028137307360831 0.01585151428739569 0.004459600271352327 0.0008499778382933085 0.00027392691880059243 8.390668255082209e-05 0.3874782872910581 0.5973897392575218 0.7074488382481918 0.7619491021620934 0.7855949363566882 0.7920872760798133 0.788997629708273 0.7804906505512351 0.7688618069739129 0.7553642299987813 0.7406922407196163 0.7252450300723896 0.7092673002703237 0.6929295982979177 0.6763659954208253 0.6596884302240176 0.6429967598239139 0.6263677554391498 0.6098485807294521 0.5934397462309599 0.5770811448524893 0.5606226128476212 0.5438029189627245 0.5262284848818932 0.5072881281402182 0.4862056985930181 0.4619760193253973 0.43342109010532415 0.39929212020487953 0.3585240290667617 0.3106384165898419 0.2562998504642624 0.19787584904055258 0.13965695571503955 0.08729807166919726 0.04622075758059658 0.01938714715228427 0.0057850741062815915 0.0010609678656367848 0.0002256872039505349 8.306878980150874e-05 0.38361845788970583 0.5767302675239638 0.6667817096586317 0.702189826771421 0.7090922639862897 0.7014495122915715 0.6866419691496746 0.6685159795334585 0.6490652491389186 0.629279751258117 0.609652786413533 0.5904288046366842 0.5717381372536545 0.5536606988788068 0.5362616285222888 0.5195998723209766 0.5037276394169636 0.48868939484598817 0.4745103617301632 0.4611848653718466 0.44866108751928774 0.4368236572288887 0.4254698414830981 0.4142929882535387 0.40280534041154886 0.39037002133541 0.3761224564145779 0.3589838031103783 0.33768659455631955 0.3109175292616508 0.27759840535366337 0.2373576498632714 0.19113400997522925 0.1417241784147645 0.09381789631483879 0.053050018147593206 0.02395494194602123 0.00770918970116553 0.0014362312760070333 0.00018885957746792928 7.867151558873998e-05 0.36331734838169105 0.5305314864618393 0.595994158815455 0.610502351500597 0.600581636469552 0.5798236670512503 0.555031891490859 0.5294852107320802 0.5047075790447683 0.48130235202659094 0.45946368544872646 0.43920457424274145 0.42047177837873645 0.4031999132827056 0.3873315434699531 0.3728282435557541 0.35966334574906433 0.3478181571880659 0.33727253317708333 0.3279988604387046 0.31994549594404603 0.31302655818240066 0.3071015162618871 0.30196460092866134 0.29726820087237377 0.29255286417745574 0.2871591169343472 0.2801954230577152 0.2705261978242376 0.25680067369917714 0.23760379558830988 0.21178036407700185 0.17898253359445893 0.14036660338439952 0.0991364022092068 0.06038453789573859 0.02966448383412982 0.010458753594660013 0.002071307352676204 0.000160830229680225 7.20457951823549e-05 0.33272184300042534 0.4699258026530706 0.5100850726236427 0.5048153625288614 0.4801733092605788 0.4489052729699147 0.41696487533101595 0.3869000285105774 0.35965110782678356 0.3353598167206906 0.3138660627380653 0.29490285164727664 0.2781963197488482 0.2635066670079155 0.25063455283972425 0.23942752207564322 0.2297676127304576 0.22156747357371742 0.21476146869740703 0.2092960518748949 0.2051232007243071 0.2021889486035915 0.20041984635555224 0.19971569259776525 0.19988588519971995 0.2006737167418767 0.2016675038553129 0.20226202634133778 0.20159467175688317 0.1985074984326871 0.191562203646216 0.17919473775091593 0.16008512451403148 0.1338120336137913 0.1016901740530669 0.06736936235745103 0.03642645056801434 0.014294465235059135 0.00312300897166689 0.00013969955697820706 6.489509679858459e-05 0.2996997398240831 0.40848027264705267 0.4266270028210279 0.40542838599490355 0.36992337393416913 0.33176564336157 0.29595066176508306 0.264255755573754 0.23702372981514438 0.21393886592228 0.19449342775923434 0.17815557168899038 0.16444555109330444 0.15296365444325233 0.1433872431382822 0.13546606552953222 0.12900864436059464 0.12387283101172325 0.1199565177110998 0.1171904441179913 0.11552892371583202 0.11494469858673269 0.11541972211095432 0.11694106542892274 0.1194575994828592 0.12289703080643634 0.12709954341844107 0.13177716578603563 0.13643723514174513 0.14030512543683707 0.14224021991610372 0.14072536314346035 0.1339935342724242 0.12044774873610785 0.09946633439832121 0.07247987649625352 0.043710683028584184 0.019423120057683985 0.004834127160513875 0.00012410342264900304 5.872664387800608e-05 0.27121275383574817 0.3575805203811524 0.35964658296267227 0.32776176062849044 0.28577583493163167 0.244255042047462 0.20731643775749037 0.1760603794502216 0.15032397278840348 0.1294206327239614 0.11256708546939667 0.099030716566232 0.088184559358611 0.07951818803022638 0.07262797011047285 0.06720267031905415 0.06300626681808474 0.05986402964947543 0.05765275089139729 0.05628990617707667 0.055728195545974836 0.05595005194518515 0.05696277373763095 0.05879811855904911 0.06148866752621964 0.06508174986457775 0.0696023832106182 0.07502406610230737 0.081214199770552 0.087