# vtk DataFile Version 3.0
vtk output
ASCII
DATASET RECTILINEAR_GRID
DIMENSIONS 41 41 1
X_COORDINATES 41 double
0 1 2 3 4 5 6 7 8 9 10 11 12 13 14 15 16 17 18 19 20 21 22 23 24 25 26 27 28 29 30 31 32 33 34 35 36 37 38 39 40 
Y_COORDINATES 41 double
0 1 2 3 4 5 6 7 8 9 10 11 12 13 14 15 16 17 18 19 20 21 22 23 24 25 26 27 28 29 30 31 32 33 34 35 36 37 38 39 40 
Z_COORDINATES 1 double
0
POINT_DATA 1681
FIELD FieldData 1
Concentracao 1 1681 double
0.0 3.57192762172644e-60 2.8192427409031563e-56 2.2413042605432013e-52 1.0881159903176118e-48 3.4821546393648664e-45 7.692556591961214e-42 1.201202846394576e-38 1.3357113017396294e-35 1.0527346322187248e-32 5.762434081317318e-30 2.1308107279270354e-27 5.134982709989356e-25 7.827478643566462e-23 7.506281220750788e-21 4.625341854177626e-19 1.9031841288172883e-17 5.44768063346299e-16 1.1278032351467035e-14 1.7470630530733036e-13 2.085265330259951e-12 1.9641914942693034e-11 1.4903703760502994e-10 9.2643262667552e-10 4.78915205984684e-09 2.0808782144094794e-08 7.681840666968959e-08 2.429819071312543e-07 6.632471855534091e-07 1.571713849432455e-06 3.2499341557548947e-06 5.888444760014656e-06 9.37972663413497e-06 1.316811726078226e-05 1.6329294203952527e-05 1.795798315202126e-05 1.7711522935582122e-05 1.6119207704391043e-05 1.4290358763131518e-05 1.3130213927577867e-05 1.2767108413743835e-05 5.36859201312085e-60 3.311667469057875e-56 2.6138252118092832e-52 2.0779968672249294e-48 1.0088329634055796e-44 3.228435585108492e-41 7.132056446085433e-38 1.1136800101850716e-34 1.238387821499607e-31 9.760295852199549e-29 5.342567798298595e-26 1.9755541874571404e-23 4.760834203753296e-21 7.25714771793592e-19 6.959353594165358e-17 4.288327137028699e-15 1.764513068152579e-13 5.0507481243240216e-12 1.0456284899547746e-10 1.6197673894801261e-09 1.933327348676324e-08 1.8210752745958082e-07 1.381778024054074e-06 8.589302799344704e-06 4.440201695156564e-05 0.00019292598897623686 0.000712212131190694 0.0022527759871777257 0.006149212304810903 0.014571945954821528 0.03013135303954327 0.05459397003587525 0.08696294788836417 0.1220865319219279 0.15139498370285412 0.16649516707086526 0.16421014237934042 0.14944719332195683 0.13249125192003458 0.12173511596719705 0.11836862916974479 5.80944131567301e-56 2.263726172580781e-52 3.0415564889472035e-51 9.501749291348026e-48 3.8760403505973556e-44 1.1148772057756312e-40 2.291299488113021e-37 3.394028344765482e-34 3.621799442043724e-31 2.7585932540176085e-28 1.4652978711008547e-25 5.268243206570806e-23 1.235369909599987e-20 1.83256281345237e-18 1.710975969007913e-16 1.0278671176975738e-14 4.1283513494215687e-13 1.1550602603912918e-11 2.340878173309177e-10 3.55423994085512e-09 4.163047364555263e-08 3.8525564464521414e-07 2.874767950091431e-06 1.759159471720834e-05 8.958286720917747e-05 0.00038371515616133497 0.0013974968545622114 0.0043635819946967695 0.011763483836294029 0.02754248177665889 0.0562861463281817 0.10080505088368097 0.1586981046155688 0.22008041428048447 0.2692714152738376 0.2915660619802622 0.28228128133311375 0.25148414391434576 0.21844260538333757 0.19811688156454987 0.19189107556720242 4.470655411786642e-52 1.8508624466994772e-48 8.417290622397339e-48 8.635012855228247e-47 1.5013473851373305e-43 3.712854945893406e-40 6.86443192058592e-37 9.39386073175607e-34 9.416722648459224e-31 6.807819147851468e-28 3.454288655502375e-25 1.1903986105927825e-22 2.679846815841372e-20 3.820586650516131e-18 3.4325315693975225e-16 1.988761169439763e-14 7.721484852930101e-13 2.0942259377561944e-11 4.1242105250513673e-10 6.0977240858442e-09 6.96878158834105e-08 6.303491875264489e-07 4.604100820964773e-06 2.762154901062239e-05 0.00013808231712251568 0.0005813536547975039 0.00208339367854865 0.00640752053623936 0.017028722887992367 0.03933527830806627 0.07935701484006394 0.14036477850680681 0.21827659539790534 0.2989118914942228 0.3607759085447999 0.3845634432499765 0.36533290452399425 0.3183032886807543 0.27046821539911736 0.2418156576931782 0.23321173731739583 2.114865217288206e-48 9.090107840634351e-45 3.4778489412536085e-44 1.3419937919418562e-43 1.3232754910353534e-42 1.4473903896252819e-39 2.3276680616288542e-36 2.8646533752961714e-33 2.6355520808366667e-30 1.772010693706848e-27 8.431480628772164e-25 2.737791449673319e-22 5.821436167953911e-20 7.853929303646427e-18 6.69640103132973e-16 3.6963777922635334e-14 1.3729568034141613e-12 3.576133811894479e-11 6.787868828356587e-10 9.704071685753619e-09 1.0751970261068469e-07 9.454015352406137e-07 6.729452823034538e-06 3.941686848711424e-05 0.00019274837939193173 0.0007952198712639292 0.002796691090040307 0.008453361699859835 0.022108013834707375 0.05031157056291202 0.10009335787871451 0.17471828438973644 0.268249237134738 0.36265907363888084 0.431766302057782 0.4530647910660874 0.42225451665953806 0.35951350801351983 0.2983913502035745 0.2626294900321898 0.25208864326879 6.656656338140854e-45 2.9260254943533563e-41 1.0075607765833702e-40 3.3437490059798714e-40 1.3004867393788685e-39 1.3535274894797222e-38 9.788503296484472e-36 1.0484476422744631e-32 8.624494682804116e-30 5.264221994499314e-27 2.296547625110264e-24 6.876028722047229e-22 1.3528005915502467e-19 1.694943619259096e-17 1.3489428439097761e-15 6.994764566947256e-14 2.4551901987506793e-12 6.079266555657512e-11 1.1022135798734487e-09 1.5121040171264453e-08 1.613724306038596e-07 1.3715406717179578e-06 9.464670638230389e-06 5.3899519591959654e-05 0.00025689367540178236 0.0010353443211823235 0.003564202067141263 0.010564892249203695 0.027142063997229324 0.06076846800352965 0.11909777422487947 0.20501746689149 0.31064148566815586 0.41454588554128047 0.4868479348718984 0.5029640719102653 0.4598667961352925 0.38238161192547115 0.3095484675114646 0.2678172954724345 0.25573008068273856 1.4551226082532872e-41 6.486565280900899e-38 2.0798687475458933e-37 6.2145327184304875e-37 2.101835860731218e-36 8.830387472185192e-36 1.0414151542572784e-34 5.020133124686684e-32 3.53954067998394e-29 1.8991484276232542e-26 7.367220335136366e-24 1.975954731857624e-21 3.5012891872060826e-19 3.977253253102894e-17 2.895411296356391e-15 1.3867778812191366e-13 4.53695528772105e-12 1.0555377646072013e-10 1.8105341880635998e-09 2.3638103782381026e-08 2.4130551761807647e-07 1.9705927700036203e-06 1.3116091131514776e-05 7.230657881075484e-05 0.0003346051406208357 0.0013132608880490671 0.004413671017635487 0.012802485510180069 0.03225382428825125 0.07094983345169016 0.1368488488958439 0.23216504733642016 0.3470397164897704 0.4570917822545922 0.5295960173934771 0.5387947034417904 0.4833451688878751 0.3923338136290554 0.30933497393003373 0.26266518590124854 0.24936871216804876 2.2567794502842277e-38 1.015338051275352e-34 3.0901868553536275e-34 8.536275863623156e-34 2.597741442653394e-33 9.490936753458789e-33 4.549504834164003e-32 6.676454780411532e-31 2.0669183773456657e-28 9.03277754596265e-26 2.9594999426999243e-23 6.799443174679398e-21 1.0440514047556823e-18 1.0418519725426728e-16 6.7657747178158195e-15 2.933413927330496e-13 8.80410119279542e-12 1.899631975576914e-10 3.0501672874228056e-09 3.756473287862641e-08 3.6411439972926886e-07 2.8387882245646274e-06 1.8130557876545955e-05 9.630806461528034e-05 0.0004311124608989166 0.001642506013700148 0.005375407567761121 0.015225490507099348 0.037552268877456475 0.0810555977534713 0.15372106398575489 0.2568635360850544 0.37867833670985923 0.49225890839443204 0.562784371896419 0.5640352965163696 0.49659859979955007 0.39339191037030596 0.3016771801913542 0.2509752968341029 0.23675326311606718 2.498502278732334e-35 1.13122787579553e-31 3.3053787979528846e-31 8.582022792721655e-31 2.3981752718599607e-30 7.83682552695991e-30 3.214315770968499e-29 1.8887420244675926e-28 3.850013216586158e-27 6.919310415032119e-25 1.6432212268326164e-22 2.9691721385398754e-20 3.721122938986933e-18 3.1227190414762036e-16 1.7516940178608455e-14 6.712192975295202e-13 1.8140816723022638e-11 3.5779325389814883e-10 5.314494178768248e-09 6.115629353876538e-08 5.584522623129944e-07 4.130235877876993e-06 2.5173317000310913e-05 0.00012825906647017765 0.0005532611408486572 0.002039584938392069 0.00648306852747227 0.01789401511019973 0.043136165695586946 0.09125037448000425 0.1700102022367306 0.2796584921196962 0.40652157280164863 0.5215827393709789 0.5885716051909513 0.581359593540591 0.5025736556925197 0.38851403713705995 0.28939872595062643 0.2354400330086672 0.22052482455435884 1.9638154045408937e-32 8.931835884951242e-29 2.5229333480496544e-28 6.220235686205029e-28 1.6172658483620713e-27 4.79978309883023e-27 1.7309257384635064e-26 8.247832186037395e-26 6.425150968579882e-25 1.675409652661476e-23 1.5739717764369357e-21 1.8093512212334305e-19 1.6645519618823023e-17 1.1020920713602068e-15 5.1196916354029597e-14 1.683168402472777e-12 4.007780668431071e-11 7.105663079184131e-10 9.639693787212123e-09 1.0257879002960142e-07 8.749912348496196e-07 6.096302824545888e-06 3.5253309387390486e-05 0.00017149048816111388 0.0007101101801775861 0.0025250876998572495 0.007774996332526067 0.020868575325216056 0.049091979571650346 0.10165892960681959 0.18592423234116895 0.30093893352574286 0.43127843317266534 0.5462238919289207 0.6086089103581952 0.5928094152113462 0.5034925224935265 0.37988588253599875 0.2745344026037275 0.21796469335124535 0.20254090938046626 1.0734219337757117e-29 4.898366139225569e-26 1.3429989066735502e-25 3.164042432339008e-25 7.717507951589897e-25 2.1008370569912425e-24 6.73886924101459e-24 2.710897255478221e-23 1.5151443833998687e-22 1.4896785612911959e-21 3.619492616906323e-20 1.7801362244200125e-18 9.978289951066799e-17 4.7363795800240176e-15 1.7218147351819183e-13 4.6817821700691666e-12 9.572139226520702e-11 1.4972200000337729e-09 1.8284655768219854e-08 1.7789204217070407e-07 1.4049081273893195e-06 9.154586334331338e-06 4.993705453285153e-05 0.00023081059399942497 0.0009138067548701521 0.0031242383589848923 0.009295289309143553 0.024213917131478503 0.05550208090700191 0.11238711580945658 0.2016269621680671 0.32101170244060057 0.45351845658241774 0.5671158896630395 0.6242104283736374 0.5999768170884042 0.5010352678867256 0.36909650377817305 0.2585049915731734 0.19984213418270363 0.18404919113850537 3.9680031096575566e-27 1.8152570694449337e-23 4.8401186483099743e-23 1.093321547967039e-22 2.5136263725710556e-22 6.311677386010268e-22 1.8142227305496566e-21 6.25141757933031e-21 2.7412789032777447e-20 1.690134708136621e-19 1.709827569263555e-18 3.140495678198472e-17 8.656391543945004e-16 2.584580069057123e-14 6.82300986986302e-13 1.4646729309805064e-11 2.4930312363457955e-10 3.366101486240437e-09 3.641365602259376e-08 3.1994907100248495e-07 2.317000267537806e-06 1.4013081795934639e-05 7.166168250384712e-05 0.00031316269647980517 0.0011807621112748833 0.003869226083837959 0.011095519086704642 0.027997402481347623 0.06244042086603831 0.12351214004607983 0.21722747368567294 0.3400886812136918 0.4736630927931385 0.5849744849799849 0.6363974136612793 0.6040923359187472 0.496475139245043 0.35730697210066426 0.24230268662535223 0.1819429358434705 0.1658796035321231 9.569184014091518e-25 4.3860520298461274e-21 1.1381832524320166e-20 2.4689219603916034e-20 5.363059612212497e-20 1.2464448473916024e-19 3.227786698254573e-19 9.638600879747086e-19 3.4463316889238332e-18 1.5523968106635868e-17 9.441638658298206e-17 8.400066265995036e-16 1.1037120570511496e-14 1.855996051839175e-13 3.265209228133269e-12 5.2336009016929214e-11 7.149996448717118e-10 8.124152781398974e-09 7.643581560892271e-08 5.984138486860577e-07 3.932403672439221e-06 2.1896608613820828e-05 0.00010430788515381517 0.0004287759940719033 0.0015334300065212845 0.004800654879824614 0.01323602629480538 0.03229098431933218 0.06997465506202342 0.13508858118877684 0.2327896851109792 0.3583123985343194 0.49202577209248044 0.600360501461365 0.6459777288980018 0.6061197191830268 0.4907822087398906 0.3453606985049434 0.22660400888446924 0.1648303855611905 0.1485580106334445 1.4610417049497243e-22 6.706722431043023e-19 1.6939620335666733e-18 3.532314865756416e-18 7.263113234699825e-18 1.568104041007937e-17 3.6825451518177035e-17 9.660796403980267e-17 2.9034435668074626e-16 1.029734960244429e-15 4.464541843903376e-15 2.472911819352311e-14 1.8142125985813027e-13 1.7237336164682974e-12 1.9094734893069692e-11 2.1635456445110947e-10 2.2783039295589674e-09 2.1174653875041238e-08 1.697991028007428e-07 1.1668962852450055e-06 6.8799409756958165e-06 3.496702383263912e-05 0.00015411962270335875 0.0005928533876406005 0.002002758659714311 0.005970839390008085 0.015788479501139166 0.03717193899841797 0.07816647074001887 0.14715175755085202 0.2483429044046547 0.37576887688332367 0.5088376521337071 0.6137141426507984 0.653595793530474 0.6068210738179929 0.484701301674363 0.33387267231301454 0.21186244972539342 0.1488498808214246 0.13239500660546713 1.4043079851456387e-20 6.453933950638949e-17 1.5873272109240292e-16 3.185718627619881e-16 6.217830095957487e-16 1.2533531971546067e-15 2.6928613833629084e-15 6.3020295702252975e-15 1.6355450125432293e-14 4.798483266292129e-14 1.6236517503161066e-13 6.495957831976047e-13 3.1527056086707545e-12 1.876453012584337e-11 1.3277724258801758e-10 1.0336078015919358e-09 8.105372084088587e-09 5.988698311795527e-08 4.0056802370537507e-07 2.3777037216930546e-06 1.2429169189642969e-05 5.712547685705011e-05 0.0002313241189584576 0.0008281289287183206 0.0026313228545238212 0.007446460867121932 0.01883804140260828 0.04272444255808727 0.08707239448937064 0.15971749832331758 0.26388574948807886 0.39250328811578605 0.5242672937728182 0.625382516897201 0.6597702039484348 0.6068060623302561 0.4788126172125581 0.32329431026742206 0.19837400449258077 0.13419405173045884 0.11755138654885766 8.67687862451126e-19 3.9914952772784e-15 9.572103346423457e-15 1.853071200176629e-14 3.446401537300887e-14 6.527061425089846e-14 1.2954755332903062e-13 2.7444928342794247e-13 6.293669066331053e-13 1.5832184040340204e-12 4.424146282779411e-12 1.3934143634639117e-11 5.026715426666576e-11 2.104237730367934e-10 1.0197486994686764e-09 5.544669769042657e-09 3.19578523569691e-08 1.837893133032403e-07 1.005284806634682e-06 5.072901532373122e-06 2.321515129516582e-05 9.557620945544219e-05 0.0003529760353695635 0.001169236513160053 0.003479120610890188 0.009314618471096867 0.022487492534385582 0.04904157586087149 0.09674676931951232 0.17278935913729118 0.27939475476974224 0.4085272745154099 0.5384382716045701 0.6356450424488723 0.6649244034669767 0.6065697474335918 0.4735749293345244 0.31395909780902764 0.18632554916760172 0.12095166150629515 0.10408397322347762 3.580847228248319e-17 1.6485011093011986e-13 3.859307360870418e-13 7.22314539217407e-13 1.2853425575873343e-12 2.3006681085037893e-12 4.256432463080277e-12 8.272402074833513e-12 1.7079939655731925e-11 3.783733203722088e-11 9.070699999588903e-11 2.374459710358669e-10 6.856885483465616e-10 2.204581216612614e-09 7.928379699802552e-09 3.162231825301046e-08 1.3607366814048432e-07 6.060007492194405e-07 2.676941057534438e-06 1.132977044798089e-05 4.486737527403259e-05 0.0001638913388413936 0.0005478242727941057 0.001669373752652996 0.0046308853003013285 0.011689438413055269 0.02686295016404524 0.05623034306138019 0.10724553821429296 0.18636271255973008 0.2948348079993438 0.4238325588189775 0.5514377870540244 0.6447245899187192 0.6694058735643956 0.6065199766820101 0.4693624050022693 0.3061225193770794 0.175831778477889 0.10914236139437415 0.09198321305954836 1.0281554288623801e-15 4.7362117652754695e-12 1.0838897062583045e-11 1.9666991647581998e-11 3.36129021355371e-11 5.7198629530635565e-11 9.943546289456754e-11 1.792234809128938e-10 3.3820878867869674e-10 6.73303024711038e-10 1.4231402199938622e-09 3.2125131881883554e-09 7.794075795312817e-09 2.044964191933068e-08 5.830613572938214e-08 1.8058028304323218e-07 6.009699332068445e-07 2.101336539915646e-06 7.49054731410437e-06 2.6396975932515854e-05 8.965381623411313e-05 0.00028810277045980185 0.0008653719696769419 0.0024116422762701 0.006208343566619398 0.014722986216788025 0.0321220591088462 0.06441627309778371 0.11863133587149242 0.20043192333123003 0.31016269339473695 0.4384027760631493 0.563332212932879 0.6528039945425046 0.6735023987895793 0.6069965528300428 0.4664849525222672 0.299991565787787 0.16696585731702068 0.09874394416486111 0.08119323841840471 2.1352753360131268e-14 9.841151362712484e-11 2.2048607879209112e-10 3.8878354252685353e-10 6.404828316695834e-10 1.041129521176548e-09 1.7123338216828233e-09 2.889020069963568e-09 5.042753269239297e-09 9.166827788868184e-09 1.7434665445140523e-08 3.4837139270527246e-08 7.343047460880508e-08 1.6395828370688651e-07 3.891767360113074e-07 9.836478093976607e-07 2.6393707254082407e-06 7.440910316572039e-06 2.165336678836585e-05 6.361683874400053e-05 0.00018455262408817693 0.0005186326093084976 0.0013914158623544435 0.0035269204585094255 0.008387481413004537 0.018621071866079822 0.03846564616957934 0.07375418795491169 0.1309838543220374 0.2150017335966482 0.3253443042395875 0.4522203457105301 0.5741743477397981 0.6600322810104692 0.6774513986445428 0.6082845085855495 0.4652113723136611 0.2957444230943921 0.1597799162426041 0.08970882019487365 0.07163189268738486 3.3183592012284127e-13 1.5300059536216363e-09 3.3600281021971793e-09 5.76966446733937e-09 9.191006051506473e-09 1.4337337526113307e-08 2.2441067385876275e-08 3.571407352077121e-08 5.824178964932067e-08 9.788521259306172e-08 1.7015558611628236e-07 3.0690390715784095e-07 5.759701375492849e-07 1.127706101897045e-06 2.3089086430614253e-06 4.953443941452869e-06 1.1130645449225172e-05 2.60974217418168e-05 6.327739889045503e-05 0.00015655365899176546 0.00038878439019353583 0.0009534011218777235 0.0022753724735322363 0.0052228564279989355 0.01142688582519929 0.023664655893935724 0.046155840389750485 0.08444357519496279 0.14441281853125437 0.23010046799814812 0.3403648155824977 0.465280129232622 0.5840130776782104 0.6665310546112743 0.6814462603728881 0.6106251659917636 0.4657803695590818 0.2935497471934661 0.15432216605511254 0.08198134935989475 0.06320376881691891 3.973567981475318e-12 1.8327286607774364e-08 3.949804310566536e-08 6.617932911423224e-08 1.0220942852222927e-07 1.5357295106233009e-07 2.2992766559746493e-07 3.474317553215931e-07 5.337158254800211e-07 8.377641822633014e-07 1.3479802847958685e-06 2.2285723649264396e-06 3.7931353743729367e-06 6.658353855869303e-06 1.2075121825967956e-05 2.265274571797265e-05 4.39935271411926e-05 8.836381988919783e-05 0.00018284935912431306 0.0003871012807647808 0.0008299872187826251 0.0017808477435665305 0.003777077350160632 0.007829254374220477 0.01570607645120653 0.030244779162973932 0.055544908123956904 0.09674993352986622 0.15907869542317957 0.24579907558197353 0.3552472752760722 0.4776018534429921 0.5928986169052403 0.6724001846243626 0.6856385137052928 0.6142168884025859 0.4684095956943661 0.2935804172660252 0.15065244574626 0.07550681848696963 0.05580676575346865 3.7550657607409607e-11 1.732429913788931e-07 3.6682482394645076e-07 6.007594913292765e-07 9.019401869075295e-07 1.3099388696412493e-06 1.884374238411593e-06 2.7182378633729527e-06 3.9607806533154785e-06 5.856023176049273e-06 8.810458835541988e-06 1.3515301529960895e-05 2.1170300062274865e-05 3.390081915080228e-05 5.555733965760636e-05 9.328007865081686e-05 0.00016057726338139142 0.0002834626169635437 0.0005125057586349141 0.0009462080903645587 0.001774553181252567 0.0033557551908589734 0.006341800204620009 0.011866594800760175 0.021783859798176364 0.03890638719922527 0.06710204326357457 0.11103273859354305 0.1752180486546135 0.2622327149088009 0.37006831062453466 0.4892454211199227 0.6008964244438769 0.6777203066080235 0.6901390586510603 0.6192186683170057 0.4733014901335894 0.29602274097595055 0.14885381156374783 0.0702423056822257 0.04933897101243999 2.858579978930665e-10 1.3191288975989454e-06 2.7468784771315528e-06 4.403462085917167e-06 6.442736925614857e-06 9.071316177678855e-06 1.2585837597534245e-05 1.7419964013563963e-05 2.422077746008178e-05 3.3971895831136957e-05 4.820424879303151e-05 6.930620737471614e-05 0.00010109178345995518 0.00014971731727686513 0.0002253005123649206 0.0003447723844481204 0.0005367764087863074 0.000850799713351108 0.001372879711065024 0.002253248877068425 0.0037536863784750447 0.006323410085880808 0.010714909603274193 0.018143870061165548 0.03047759991629995 0.050406138019430266 0.08147180022241507 0.12778366782780154 0.19317795683074748 0.27963454743565913 0.38498871187278283 0.5003285049325361 0.6080955772063696 0.6825590098854538 0.6950168944380073 0.6257455942353485 0.48064427589785813 0.3010872878933844 0.14904709622298917 0.06616351710398245 0.043701954207598565 1.7827858053451842e-09 8.228428515619686e-06 1.6867616577163766e-05 2.6509899322521228e-05 3.7868480787605194e-05 5.183746886516778e-05 6.961957160595152e-05 9.28425123500687e-05 0.0001238067491449639 0.0001657733032993279 0.00022346068004304966 0.0003037001021766075 0.0004165816572802527 0.0005771433716804568 0.0008079403487902592 0.001143435670523601 0.0016367258697863613 0.002370989201188769 0.00347756844429486 0.005165310812660486 0.007766493535345179 0.01180609974259401 0.018100564503310552 0.027885421955046577 0.04295742628835343 0.06579073924946197 0.09952007221157778 0.1476753737768819 0.2134527398766213 0.2983656887388865 0.4002777382400435 0.5110510325538568 0.6146273915294567 0.6869791112972832 0.7002991535067455 0.6338633390909127 0.4906066958555537 0.30901462453456946 0.15140055116003595 0.06327409221800674 0.03880277514020638 9.246552375737561e-09 4.268388049407331e-05 8.619335831404181e-05 0.00013298216640796452 0.00018581149318234007 0.00024790423162791196 0.00032324861488852984 0.0004169616661603486 0.0005357580769391431 0.0006885442512923492 0.0008872918708152012 0.0011482137757119434 0.0014935459329117455 0.001954013574227116 0.0025720014775789776 0.003407388219873538 0.0045449598727451265 0.006106805406195221 0.008269819640022772 0.011294362832698282 0.015563080419860773 0.021639818530991402 0.030349523982685492 0.042872901098356904 0.06085238042952362 0.08646578742155113 0.12239799183988599 0.1716078948566135 0.23672808662525582 0.3189526967364354 0.4163393147022331 0.5217143391599135 0.6206764926403866 0.6910446451456446 0.705970568804997 0.643582741640923 0.5033388770296 0.32008318939142966 0.1561516963642982 0.06161708167424735 0.03455682671706305 4.0309783177602555e-08 0.00018609953307387934 0.0003704642619692839 0.0005617928100369933 0.0007691965589607569 0.0010024586007341618 0.001272867309429475 0.0015937142385424713 0.001981252198865336 0.002455804674976758 0.0030423428586413355 0.003772802605983031 0.004687571932338298 0.00583880555623142 0.007293156092570971 0.009137877665036287 0.011487558745233283 0.014495179949885934 0.01836811540382961 0.023389831559128247 0.0299551186496889 0.03861432497683834 0.05013152043685052 0.06556296040417364 0.08632562540592528 0.11426154040234349 0.1515967413360032 0.2007700932309973 0.2639548380258509 0.34216089338518635 0.43380185536692106 0.5328000035817334 0.6265538477344003 0.6948710729571412 0.7119890861079975 0.6548385664046239 0.5189268928971826 0.33457986829757974 0.1635985737281164 0.06127956354547741 0.030885001794152787 1.4930420789722175e-07 0.0006893655410246486 0.0013538382719545533 0.002020110386057581 0.0027142376503892277 0.0034624051763001078 0.0042918178365495795 0.005232306708146045 0.006317117412018904 0.007584237373953355 0.00907749886983205 0.010848300639456495 0.012956950089790926 0.01547525718604624 0.018488773725988887 0.02210098323930201 0.02643911339876614 0.031662441017876936 0.03797408412971976 0.045639297247189 0.05501445177151186 0.06657411752688473 0.08096952891932412 0.0990746688824025 0.1220497208546067 0.1513947428654746 0.18891648485047305 0.23661087901858577 0.29631170368736653 0.36897277024447955 0.4534794927860409 0.5449475033795398 0.632677134839257 0.6986168554058518 0.7182897114657415 0.6675021951816176 0.5374168212725919 0.35283374446817406 0.17414495234296468 0.062419804542509 0.027718400798182975 4.7383152830176103e-07 0.002187934205996811 0.004241566309694875 0.006233737235683117 0.008231350782696933 0.01029669933247417 0.01248898664769347 0.014866659084320959 0.017489163795984048 0.020416596278864236 0.023713501402117983 0.02744730087607672 0.03169027437710119 0.036520326269161206 0.042022595603725225 0.04829150166045164 0.05543579310101841 0.06358320799639743 0.07289128531109385 0.08356280249380826 0.09586717892832447 0.11016855676241738 0.12696404506756487 0.14693244581660947 0.1709803729573705 0.20030284460890013 0.2363530419315619 0.2807881540231265 0.33520941396290305 0.4006162983147214 0.4764425105934907 0.5590367368974664 0.6396593347626491 0.7025617194322596 0.724824459195224 0.6813690479460385 0.5587598274722886 0.37516787887197495 0.188292460147156 0.06528051583392484 0.024995267893367753 1.2976637007328388e-06 0.005992365737929279 0.01147285549225232 0.01662184604744241 0.021597947119450695 0.026538421676024136 0.031563635118498135 0.036780691749924425 0.042287093475095246 0.04816858843930963 0.05450726993178476 0.06137725877713518 0.06884677987668802 0.07697846536790344 0.08583014101267318 0.09545776399377698 0.10591919526917824 0.1172792632607256 0.12962013096230734 0.14305426015319714 0.1577451482891223 0.17393272576653795 0.19196779598454147 0.21234879029650314 0.2357656514050421 0.26317306841783317 0.2957523461209688 0.3349132391336379 0.38211261621792303 0.43846311694286316 0.5039600974229872 0.5761757774227595 0.6483437410383741 0.7071544784393594 0.7316078260657521 0.6961722556440076 0.5827900477533109 0.40187266454749027 0.2066569542103698 0.07021991903160898 0.022661210280504454 3.085200966509016e-06 0.014247513039853898 0.02695073919154814 0.03852096471190205 0.04930946191105714 0.05960573188253187 0.06964795111284203 0.07963190651707415 0.08971930990405012 0.10003307981419199 0.11067796091492761 0.12173074316263272 0.13324611455419608 0.1452599066888601 0.15778879871939108 0.17083741183648948 0.1844023520758707 0.19847933033213147 0.21307453027146486 0.22821779415606097 0.24398171645568406 0.26050326571246746 0.2780176572608072 0.29688832827179923 0.31764437912239196 0.34105351675654233 0.3680999621617516 0.40001114591403647 0.43815351288207505 0.48376148291922494 0.5373535030552913 0.5976468110483341 0.659803636295503 0.7130714664219142 0.7387859415164763 0.7116190991707182 0.6092002420013901 0.4331607527921466 0.22996542820802746 0.077749369766419 0.020668859590962912 6.400054692555271e-06 0.02955655171762916 0.05525511078954165 0.07796319049066236 0.09841000182697225 0.11718266067968433 0.1347480600723889 0.15147197128415232 0.1676437311241036 0.1834667156615134 0.19910139314057804 0.2146545417001204 0.23018853825680516 0.24573167093147016 0.2612819153134563 0.276815406704559 0.29229678330475567 0.30768269961914635 0.3229390251523884 0.33805102162744916 0.3530420218069071 0.36798918562269795 0.3830542001212477 0.3985076212480571 0.4147551149168777 0.4324270370635208 0.4523393458488739 0.4755629826537541 0.5033648348344575 0.5370577998224938 0.5775802436511622 0.6246525049745674 0.6752438823537151 0.7212207741689047 0.746703673449517 0.7274474687855635 0.6375284266073219 0.46909911594759235 0.2590457248419233 0.08858388035817569 0.018977290607449522 1.1632457601232026e-05 0.05372198200501734 0.09926968622392988 0.1383290351470582 0.17230863427641763 0.20233234825113847 0.22928162196671975 0.25384286202088213 0.27654945190403896 0.29778123723300626 0.3178380143036901 0.3369262734390836 0.35518434299834334 0.3726949074075471 0.38950042207557806 0.4056102818913758 0.4210143025204653 0.43569454595228924 0.4496321634535646 0.4628210856562281 0.4752805136592729 0.48707030834594783 0.4983086707927976 0.5091967005941531 0.5200375757827447 0.5313153364507996 0.5436722041926287 0.5579905157754994 0.5753791940751065 0.5971173486051877 0.6243967415540042 0.6577155865580174 0.6956317667127726 0.7325943835071225 0.7559152761025361 0.7434960188034354 0.6671667956103928 0.5095272298675121 0.29477929105056666 0.10370909826339449 0.017551434743709193 1.8585268512387755e-05 0.08583344315834783 0.1567528017526453 0.2157557006232224 0.26533475276942153 0.3074710908725287 0.3437176251908756 0.3752835247165402 0.4031139596767921 0.42790342510019125 0.4502103462021789 0.4704475738441447 0.48892179061372254 0.5058587834882953 0.5214227797798491 0.5357338530796797 0.5488763359277868 0.5609143375011464 0.5718989360565566 0.581877865279593 0.5909007632618692 0.599033184418394 0.6063650077910178 0.613029163009019 0.6192126846449977 0.6252299377172801 0.6315025648470782 0.6386479432125791 0.6475133035396021 0.6591737717522078 0.6748309959015552 0.69543900579181 0.7207993404454378 0.7477217401024431 0.7669633477429021 0.7596942471339487 0.6973723904598765 0.553956017440693 0.33801554659255445 0.12445951530148215 0.016361499917241697 2.616584155140242e-05 0.12084448981387245 0.21800252018948132 0.29629966282288334 0.3597326945113166 0.41146468024339306 0.45396995141892266 0.4891772794225708 0.5185975065023453 0.543372810880459 0.5644231085236375 0.5824539074443873 0.5980183195362176 0.6115506960059882 0.6233936699606258 0.6338232870318922 0.6430598540823826 0.6512843697962156 0.6586446341944354 0.6652615940447762 0.6712350530834826 0.6766461679217376 0.6815637153711588 0.6860524503071402 0.6901791099937234 0.6940630446550056 0.6978673130869426 0.701877309979079 0.706548035606938 0.712561676260504 0.720829812535084 0.732341796506439 0.7476118123332723 0.7653189720112342 0.7795751470085578 0.7757391269144385 0.7271785841638445 0.6014319850638061 0.389417600631264 0.15261536794624098 0.015382338043810732 3.2531540209977565e-05 0.1502447450248591 0.26742821498578995 0.35856482341632595 0.429412403199473 0.48450348336388604 0.5273608900989639 0.5607210746255334 0.5867162230256421 0.6069786109849091 0.6228093778429769 0.6352206473293212 0.6450140163046992 0.6528296921802385 0.6591834713255081 0.6644970535583036 0.6691168897633167 0.673330287735677 0.6773745963390575 0.6814434533008479 0.6856889061071142 0.6902226820063053 0.695114926266222 0.7003943457533878 0.706047720901