# vtk DataFile Version 3.0
vtk output
ASCII
DATASET RECTILINEAR_GRID
DIMENSIONS 41 41 1
X_COORDINATES 41 double
0 1 2 3 4 5 6 7 8 9 10 11 12 13 14 15 16 17 18 19 20 21 22 23 24 25 26 27 28 29 30 31 32 33 34 35 36 37 38 39 40 
Y_COORDINATES 41 double
0 1 2 3 4 5 6 7 8 9 10 11 12 13 14 15 16 17 18 19 20 21 22 23 24 25 26 27 28 29 30 31 32 33 34 35 36 37 38 39 40 
Z_COORDINATES 1 double
0
POINT_DATA 1681
FIELD FieldData 1
Concentracao 1 1681 double
0.0 1.4024175736571615e-12 3.756665034291677e-09 4.306674099823401e-07 4.834949211211882e-06 1.8602413778364158e-05 3.943816029739449e-05 5.9361887645024144e-05 7.381187093799786e-05 8.300914484144845e-05 8.874575320302613e-05 9.249820223575697e-05 9.511473474844146e-05 9.703554676237196e-05 9.849584296031315e-05 9.963195783201918e-05 0.00010052735551625615 0.00010122625486992647 0.00010172404446092603 0.00010193136651746781 0.00010162984241087077 0.0001004634262205183 9.802204148140592e-05 9.402472309468914e-05 8.851779200195594e-05 8.195613065080861e-05 7.507489182806648e-05 6.863241625769085e-05 6.316730645222426e-05 5.88967838321395e-05 5.576610166543418e-05 5.357375669785429e-05 5.208656575072067e-05 5.110356566743183e-05 5.047328579877226e-05 5.0086973228448326e-05 4.98661710483944e-05 4.97530774545e-05 4.9704628677429956e-05 4.968935952583294e-05 4.9686826462554045e-05 3.3287530183739566e-12 1.3002336969164908e-08 3.482944422092696e-05 0.003992878363343152 0.044826619441909 0.17246992402938632 0.36564590979378414 0.5503662252844799 0.684337415822326 0.7696087763191288 0.8227950144114334 0.8575853705076918 0.8818442204107068 0.8996527857971315 0.9131917371031305 0.9237250822886727 0.932026648548641 0.9385064054161021 0.9431215985821721 0.945043758779628 0.942248216202336 0.9314339361775195 0.9087989466811057 0.8717383153731326 0.8206815009986766 0.7598458885764238 0.6960473540891018 0.6363167575427447 0.5856476839380417 0.5460540741717416 0.5170283508497597 0.4967023020633123 0.4829139994954139 0.47380023868428245 0.4679566786839454 0.4643750306005737 0.4623278911447406 0.4612793582081243 0.4608301715057887 0.46068860550003765 0.46066512052456743 8.576498323977172e-09 2.902585198628416e-05 0.0014123715095111147 0.023213796731785332 0.13021017981627583 0.3517008078344939 0.6016080849230283 0.7873777269835401 0.8924486203859859 0.9436237001141773 0.967615404448409 0.9795100379455204 0.9860315947686884 0.9899610079222074 0.9924943420059005 0.9941941328898722 0.9953057164328218 0.9957497152374117 0.9948044097200709 0.9904655038216917 0.9787719630585098 0.9538733716433886 0.9096462736800139 0.8427319026852813 0.7553547003068702 0.6558888889141626 0.5560981220078762 0.4669101668135417 0.39497532599862867 0.3417747860778423 0.30498963806604595 0.2806991510477133 0.2650906562307255 0.25522586387544943 0.24911237806944528 0.24545535630439522 0.24340383309938554 0.2423706874555686 0.24193647610694174 0.24180360262713899 0.24178186953980554 8.281140761386521e-07 0.003299356296298094 0.02144840241684421 0.10004801966109168 0.2919160259673195 0.5532123766385273 0.7736241450465461 0.9032993284187991 0.9624108118857506 0.9853977915763773 0.9937876082622108 0.9969694159760517 0.9983244738314636 0.9989850541072421 0.9993413683301304 0.9995277931900027 0.9995123005693888 0.998922490611155 0.9965210085427404 0.9893285143787099 0.9718676946481312 0.9365901640212076 0.8763714117858659 0.7884959916894247 0.6777665398182976 0.5562593445260302 0.43903001976344314 0.3386476685614773 0.26147191429813393 0.20739355196001485 0.17217157691754018 0.15033175722151174 0.13712243403872176 0.12919683567992676 0.12447476469408586 0.12172901898756734 0.12022132602090767 0.11947548854005546 0.11917019470154303 0.1190830917716868 0.1190720083095097 8.865935819687512e-06 0.037511247729169146 0.11819564033371213 0.28197300999768515 0.5183957013333335 0.7437063268891905 0.8905079792816291 0.9608186631621543 0.9875211764505022 0.9961758765140686 0.9987574972145452 0.9995344541189444 0.9997938392893796 0.9998949237156438 0.9999358556176461 0.9999189457170082 0.999701522243207 0.998696240161957 0.9951735543044664 0.9852345031529243 0.962145984271272 0.9172966348899109 0.8435249900992254 0.7396961177726913 0.6134724525704046 0.47991512702420247 0.3558800639059159 0.2539373112938989 0.17905238157251344 0.12922572313765707 0.09862961615331232 0.08084891324826388 0.07077853232811618 0.06508328154307047 0.06184337992627451 0.060020031736833956 0.05904301771324095 0.05857108837046505 0.05838460130200614 0.05833689590904757 0.058333045786291116 3.395552291492132e-05 0.14786764285114293 0.32142400571840674 0.5307583359640627 0.7344870289952623 0.8797931717452027 0.9558284659928411 0.9863420442597854 0.9962706847430163 0.9990442631144075 0.9997498920790172 0.9999263039952344 0.9999738442034816 0.9999879412775543 0.999984175117086 0.9999194368060049 0.9995618397527133 0.9980758861394962 0.9931715968546991 0.9800136544172794 0.9508170079174779 0.8964643965942357 0.810577823156741 0.6942275965708964 0.5579286417381732 0.41891225170088914 0.2945423510989732 0.1962661400753812 0.1271078600697133 0.08327499976472535 0.05783241810783448 0.043969103672348214 0.036643106481620356 0.03276417667408693 0.03067305719984003 0.02954114399520531 0.028951654597112686 0.02867527063092146 0.02857148338376194 0.028548561534719165 0.028548649507570013 7.31461708277231e-05 0.32387308756520855 0.5609178426811513 0.7482412881914524 0.8797794149894416 0.953184093589152 0.9849674455086124 0.9959008557883422 0.9990128195972874 0.9997797363552576 0.9999512337305978 0.9999882400202473 0.9999964594515288 0.9999966411044511 0.9999796804927449 0.9998656435273239 0.9993023288829298 0.9971253493044607 0.9903756766614458 0.973254209669276 0.937149647405589 0.8730071076445485 0.7759518990426121 0.649693423818447 0.5073871797470338 0.36753948582985957 0.2469586588314537 0.1552035944497587 0.09318122892864389 0.05559956938165533 0.03489791876588959 0.024294728588051488 0.01907211929792916 0.01649841850542662 0.015194447119656023 0.014520302431633436 0.01418109936723049 0.014027605406993125 0.013973738371235906 0.013964842146919081 0.013966575536286519 0.00011257517441384308 0.5038699186127086 0.7510569693181772 0.8843476626062223 0.953541024990716 0.9843442727359314 0.9955631189757064 0.9989191827636432 0.9997664524364038 0.999953488697716 0.9999909773830545 0.9999981249358726 0.9999991148706475 0.9999949732668671 0.9999605978211362 0.9997603818346297 0.9988601309610878 0.9956491197636852 0.986370039757108 0.9642620081516194 0.9201930887625744 0.8458003905193068 0.7383532042440358 0.6044621573015657 0.4594712906668925 0.32227622499293634 0.20822656660871638 0.12454202910572573 0.07006758305080697 0.038391581418535145 0.021754649188936076 0.013708649560121706 0.01000877709180388 0.008318062865068188 0.007519576459480471 0.007128705510400898 0.006939980927468358 0.006858344082979333 0.006832243313521025 0.00683014584006418 0.006832220257532256 0.00014276264307024235 0.6438198861728448 0.8672334012448841 0.9514993683216161 0.9838428051330356 0.9953044699812429 0.9988223051829437 0.999742087080469 0.9999495040119106 0.9999908911721339 0.99999841114874 0.9999996094850256 0.9999986306399191 0.999988041954257 0.999917350636719 0.9995546982555222 0.9980868990396511 0.9933028545701474 0.9805226972830886 0.9521066435781343 0.8988400419801279 0.8137380371456155 0.6967855534124161 0.55750044870534 0.41279715123264155 0.28104883089728805 0.1754301636342513 0.10061156326840534 0.05360201167409449 0.027274457786995047 0.014024066104494182 0.007938632730725013 0.005314895373854617 0.0042039317211366506 0.0037183322549018912 0.00349543947827341 0.0033930871229067776 0.0033512499885121516 0.003339645468658778 0.0033403158098504887 0.003342173023380522 0.00016277999207150898 0.7381442889332586 0.9282261193063651 0.9799599391457909 0.9946035468483285 0.9986681842214056 0.9997063613979179 0.9999422362293567 0.9999897185923202 0.9999983043286018 0.9999996908811961 0.9999994873809994 0.9999956899843011 0.999968521721749 0.999816513029688 0.9991392009211922 0.9967017037935412 0.9895123918231342 0.9718908893673617 0.9355495181984981 0.8717976561379996 0.77576536893141 0.650556532562745 0.5083162841928646 0.36672954325589685 0.2427546644015574 0.1468968969522384 0.08126849211781043 0.04138160095544848 0.01979339946378031 0.009330588564190887 0.004738350444766707 0.0028699903026774966 0.0021349009357936525 0.0018389200393647712 0.0017128229657532618 0.0016583591842621195 0.0016376627539879392 0.0016330995196677642 0.0016346143877957904 0.0016360735554549074 0.00017548400862697555 0.7989914140481352 0.9584970473611777 0.9912003646238893 0.9981305182833966 0.9996176605390639 0.9999271501209951 0.9999872486442394 0.9999979386184106 0.9999996495048095 0.9999996463585872 0.9999977027382676 0.9999846281245818 0.9999115297224935 0.9995731087745721 0.9982801310101229 0.9941852614069001 0.9833445047402398 0.9591256516948489 0.9130400530547117 0.8376843015672176 0.7309994002424736 0.5993328613000662 0.4568977505257778 0.3211895256546944 0.20694887234947726 0.12171838651623652 0.06525989124919589 0.0320033959908641 0.014554135739037384 0.006373031489080692 0.002919483744758704 0.0015834718114205975 0.00109215767949325 0.0009101230697761238 0.0008388284550311893 0.0008102468736388869 0.0008003797576725019 0.0007989913727542482 0.0008005037459300589 0.0008015573491987413 0.00018375390466090656 0.8391925887459183 0.9739237348331533 0.9956993076053648 0.9992807560446971 0.9998803485496102 0.999980706589082 0.9999970206066222 0.9999994714482143 0.9999994862378987 0.9999977336677601 0.9999883846170274 0.9999425198208811 0.9997412992960282 0.9989759891332597 0.9964885399621155 0.989604203392635 0.9733406384653536 0.9403830513220448 0.8827390495801083 0.7951542562949341 0.6788809992552719 0.5432783395696836 0.40373496318348506 0.2765392730676387 0.17359329297848802 0.09944385794191019 0.051862743078102784 0.024645732250260687 0.010761670402863768 0.004437637426918454 0.0018545622661744888 0.000896773861339947 0.0005648242679424986 0.0004513061606691375 0.00041072065317983476 0.0003958462929719961 0.00039133811983954624 0.0003912312433607765 0.00039245403547415154 0.0003931771889688376 0.0001894329178056459 0.8671261702376213 0.9823959806162001 0.997652030420933 0.9996831644705167 0.9999568838234267 0.999994030841371 0.9999988134951262 0.999998652553501 0.9999958367293447 0.9999849645167049 0.9999430777875076 0.9997860649605519 0.9992389715309986 0.9975250074389257 0.9927905772571426 0.9813668113810815 0.9573527935775336 0.9133252128370233 0.8426945140422699 0.7431482743182969 0.6193810387855795 0.4830945149634622 0.34973619732322303 0.2334352905909469 0.14289557957911925 0.07987580598361886 0.04064632905425116 0.01881131062291003 0.007951546716201102 0.0031271189507325156 0.0012097847778715564 0.000523041211612993 0.00029657680055456535 0.00022458969585999482 0.00020116808290382028 0.00019344192549148185 0.00019148924276812652 0.00019180390609697563 0.00019269597462716575 0.00019317497669478373 0.00019353757869741407 0.8874897481055287 0.987449515026296 0.9985976972478093 0.9998415864998913 0.9999810695868389 0.9999959064321028 0.9999951328443117 0.9999885746134421 0.9999696526599016 0.9999137908986004 0.9997452983194184 0.9992440989002873 0.997826609503251 0.9941261648079323 0.9853909909877062 0.9669741771958773 0.932499671651909 0.8753113837454265 0.7911862241661266 0.6812334924187773 0.5532111434446612 0.4200888334359486 0.29616836029123184 0.19270561494624525 0.11515602020744428 0.06292579496346869 0.031330813235868116 0.014181364449448139 0.005842071227757695 0.0022153867986500282 0.0008058053094495109 0.00031454863314268254 0.00015888102533254082 0.00011241933087321885 9.86318377159419e-05 9.459463539980902e-05 9.380982280879368e-05 9.419120244319393e-05 9.480425886043162e-05 9.511213849200564e-05 0.0001966204885339878 0.9028784510277402 0.9906720277235441 0.9991013850320626 0.9999079041910652 0.9999816342071329 0.9999804295045935 0.9999625085216074 0.9999208768026204 0.9998229286227395 0.9995844769882841 0.9989947864231082 0.9975518957939365 0.9941536400697927 0.9866363726284049 0.9713151388034136 0.9429114450345544 0.8953806928995778 0.8238662895795269 0.7272431690239564 0.6099621050347226 0.4819506360265715 0.35610415787843636 0.24452742213044143 0.1552215363826106 0.0906699869682745 0.0485276591263099 0.023704325167626276 0.010533115577844213 0.004252858348738395 0.0015694794358867197 0.0005446475906412505 0.00019480981499020282 8.726972489097835e-05 5.677429336575206e-05 4.8455429019731005e-05 4.631237195240325e-05 4.6034025950531525e-05 4.6357428528757066e-05 4.6761796299559544e-05 4.6956366450186265e-05 0.00019899805856749 0.9148002070162351 0.992819592499524 0.9993713938355528 0.9999053553890562 0.9999220789093561 0.9998722244357369 0.9997711930022706 0.9995722480939785 0.9991676026470218 0.9983251483167745 0.99655653601647 0.9928845528172452 0.9855017761024016 0.9714077198111679 0.9462776838643941 0.9049408604430911 0.8427124401154065 0.7574103405155225 0.6511859708583977 0.5311450884972112 0.4080203846856932 0.2933476936308904 0.19632730320523747 0.12173036363967975 0.06962454582821379 0.03657761188949392 0.017576495734214995 0.00769444955784464 0.003059998582784146 0.0011075047706847604 0.00037145121107646665 0.0001238450384318617 4.935867774207456e-05 2.9041644660973128e-05 2.388330432006874e-05 2.2713654718846904e-05 2.2639914407923286e-05 2.287951628197303e-05 2.3138679370200837e-05 2.3259200188673224e-05 0.0002008605494521976 0.9241740728189025 0.9942391203557656 0.9994127468544415 0.9997061671100153 0.9995825418606844 0.9993339433369233 0.9989067788192773 0.9981556245686515 0.9968022804122547 0.9943295450435825 0.9898033320889074 0.9816245357375794 0.9672755894553994 0.9432097590179226 0.9051494917220463 0.8490097515766318 0.7723890207608688 0.6761128988095594 0.5651040604378771 0.4478492473474603 0.33447016458644685 0.2341463928005506 0.15291942328620106 0.0927682625822734 0.05206058160871517 0.026912092143029396 0.012758087432812145 0.005521478404477178 0.002172591966793097 0.000776282647854332 0.0002544378836420171 8.045920856283162e-05 2.8829510146943502e-05 1.5121927217072393e-05 1.1832023738209284e-05 1.1167795297070792e-05 1.1166034457622326e-05 1.1331034111371273e-05 1.149415637722868e-05 1.1568626431621963e-05 0.00020231036283774702 0.9315052452818626 0.9949172867575372 0.9988868358158829 0.998751441065596 0.9981609468632293 0.9972425917461605 0.9958089975226567 0.9935195476204779 0.9898029000804064 0.9837260466152747 0.9738249299806838 0.9579365289475369 0.9331524900974728 0.896035620921577 0.8432664027355065 0.7727199208176784 0.684656597402758 0.5825272097204395 0.4728750025221999 0.36410882683188384 0.264564420458648 0.1805756740095609 0.11528894379416126 0.06857573158670845 0.0378526009962633 0.01930680429277952 0.009057539567657234 0.003888998281125496 0.0015205647719705635 0.0005395212490979479 0.00017443988675222373 5.316792435677118e-05 1.7406116138022673e-05 8.061998139926356e-06 5.906335205720959e-06 5.509790352928822e-06 5.526737386195788e-06 5.635451195898572e-06 5.73686475341997e-06 5.782353100755137e-06 0.00020334919569925766 0.9368284534454301 0.994198700959945 0.9966135288622335 0.9953757006278523 0.9934424564012911 0.9907250267738242 0.9868149770104079 0.9810831158117476 0.972586606489763 0.9599707354498829 0.9413774076598519 0.9144441626398432 0.87649665524326 0.8250238151248682 0.7584207442551266 0.6768556995812596 0.5829133187689356 0.4816263017258525 0.37973696584092365 0.2843243627913679 0.20128892217042585 0.13420690686386022 0.08395577195607894 0.0490915961853809 0.026727933115262763 0.013492389983086649 0.006284810597645149 0.00268696837057556 0.0010483610378200575 0.0003713756340452342 0.00011940969177776336 3.5582298861189295e-05 1.085147883544106e-05 4.428649951438894e-06 2.980942057163577e-06 2.7307861464358943e-06 2.7475191585832595e-06 2.817039975300466e-06 2.8794405698475306e-06 2.9070878859013524e-06 0.0002038108246817589 0.9393972533930349 0.9901710111741088 0.9897134821462159 0.9857928793135958 0.9807143045162686 0.9741080393357129 0.9652851844212075 0.9533142147670909 0.936950019332233 0.914627395232391 0.8844839662951891 0.844537136292372 0.7930340010712789 0.7289781168575787 0.6526830693298777 0.5662573994028465 0.4736238477753716 0.3800815080837625 0.29134652346384654 0.2124685615124209 0.1468672196210882 0.09589262436349823 0.058937563912553476 0.033978493087976853 0.01830577009779894 0.009176462581894088 0.004259167232894308 0.0018201443153370294 0.0007116882244183913 0.00025300017904478466 8.14790260277535e-05 2.4030982992436427e-05 6.966844326275063e-06 2.521753915734851e-06 1.5282428045623512e-06 1.3617606514727066e-06 1.3731055416926672e-06 1.416685713565475e-06 1.4548823724406283e-06 1.4716693911953748e-06 0.00020327363236148115 0.9372818101803759 0.9789923172310819 0.9728403572605078 0.9634050224228925 0.9523192243720826 0.9388888014071134 0.9221656761373569 0.9010363934720305 0.8741950942750731 0.8402392832299681 0.79779714543727 0.7457824162784444 0.683741425727551 0.6122199980042342 0.5330434869497551 0.4493147268843917 0.3651193715334487 0.2849127389249612 0.21271198511959252 0.1514322413944944 0.1024757413939379 0.06571421609282002 0.03980750855379291 0.02270271712007395 0.012144737530196372 0.006067383958963055 0.0028168319887047857 0.0012081180214364724 0.00047547865447612915 0.0001704808329445749 5.53546612936532e-05 1.633214809946867e-05 4.589162537823718e-06 1.4955967063839126e-06 8.008688798545262e-07 6.846143801219153e-07 6.906018664239869e-07 7.174956362534751e-07 7.40827149974354e-07 7.510375086235656e-07 0.00020103915957560517 0.9272699617623484 0.9549150042456656 0.9385400185087501 0.9196714200457634 0.8991733593818663 0.8759986685813893 0.8490274291459238 0.817147063532244 0.7792896942430704 0.7345542719591792 0.6823636349317529 0.6226761002532532 0.5562021392129542 0.4845357565962856 0.4101290611291268 0.33607549331875297 0.2656871885063321 0.20199157497265355 0.14723942893882067 0.10261626501184754 0.0681911548691985 0.043090656471121286 0.025816356985535364 0.01461782949036903 0.00779338562170181 0.0038955723973520206 0.0018162558083553292 0.0007851182817426137 0.0003124421428548379 0.00011355955534988399 3.7406585152990604e-05 1.1144656812347844e-05 3.089033700253948e-06 9.261184227206217e-07 4.324271136013886e-07 3.479804661761356e-07 3.4998875093792444e-07 3.663823726678167e-07 3.8064621291754853e-07 3.8688119494982767e-07 0.0001962898310145749 0.9055960377571883 0.9118194794399265 0.8796418729197237 0.847327421041605 0.8147362898853776 0.7803458552949076 0.7428789233537797 0.7013427720924678 0.6550423135060559 0.6036396320132208 0.5472972984325463 0.48672364540813395 0.423243768997141 0.35872944489897357 0.2954250864738461 0.235697515318845 0.18165747668732632 0.13490123362298548 0.096292324868447 0.06590952722272422 0.04315888733900911 0.02697050397744853 0.016040715683003803 0.009052055272900482 0.004829052925983189 0.0024249239832788306 0.0011402686861918586 0.0004989979162749747 0.00020173912182857236 7.47114643333687e-05 2.5118254940444734e-05 7.621006449046259e-06 2.1162024488594375e-06 5.985354250212185e-07 2.4283983794163654e-07 1.7955676090397164e-07 1.7898170522764262e-07 1.8886470237407568e-07 1.9761493546718625e-07 2.0145642869185396e-07 0.00018844683721504175 0.8695922661387261 0.8461878515206189 0.7931856143630137 0.7449250846135752 0.6997186483714475 0.6552572985586083 0.6099506289701371 0.5627884248463503 0.5132940352942086 0.4614686354422701 0.40781829759907 0.3532726717892096 0.29912585809774245 0.24690509550757042 0.19815586912352914 0.15425710282044156 0.11621332463445477 0.08455353591895066 0.05929414951190798 0.039998827591101495 0.025903750910299606 0.01606934200255938 0.00952492889303102 0.005378602485301252 0.002882996643400639 0.0014606311661104615 0.0006957953372695117 0.00030968707870774703 0.0001278198308142973 4.848781719223219e-05 1.6738802984694008e-05 5.2126390932398985e-06 1.4698286469947015e-06 4.02455863263662e-07 1.4319577842491924e-07 9.461698736631585e-08 9.25348604005478e-08 9.841708616157678e-08 1.0381454736643227e-07 1.0620396693224622e-07 0.00017756799320174305 0.8195287099548545 0.7599510204171636 0.6835975820637575 0.6197140454381136 0.5642250836279715 0.513513061228669 0.4652710913578931 0.4181591597013117 0.3715734984338407 0.3254607713799249 0.2802077219656608 0.23649580840416842 0.19517802064402648 0.1571489307193913 0.12317482895774706 0.09380463003075289 0.06928404713746869 0.04954984819745207 0.03425662514071496 0.02285888772746677 0.014696937030955447 0.009086271680762571 0.005389243974018556 0.003057837801718048 0.0016539549560533958 0.0008491967275317979 0.0004117089915919667 0.000187280914197557 7.931610238954939e-05 3.098992387839155e-05 1.1051961566679057e-05 3.559221520126686e-06 1.031361474725659e-06 2.8013372203939355e-07 8.936084447529338e-08 5.135551310142749e-08 4.84897003924633e-08 5.192570152566299e-08 5.527982302544662e-08 5.6786322967280795e-08 0.00016452525184250475 0.7594340604026134 0.6611864726635228 0.5626261902020131 0.4864508523274731 0.42524103188910606 0.3734525696014203 0.32765504545235513 0.28582952744287327 0.2469099928398274 0.21047831425386038 0.1765179327262323 0.14525475258690312 0.11700390203399522 0.09207168707559613 0.07065124362655754 0.05278447421217233 0.0383421244253532 0.027044018463298753 0.018499498113016627 0.01225646443197467 0.007853180433093986 0.004858010718106036 0.0028950050730596247 0.0016575444227167656 0.0009086507965093637 0.00047494271974110803 0.00023546039221858573 0.00011001079115933744 4.806100771891974e-05 1.944957807478084e-05 7.210192214577674e-06 2.418937660739976e-06 7.280671622238429e-07 2.0046995234434894e-07 5.9194531716868634e-08 2.903916653152316e-08 2.5840825466108675e-08 2.7780769790726328e-08 2.9884373796831437e-08 3.0848249077679e-08 0.00015076798650044882 0.6960052668005333 0.5615120249369574 0.4452202686857564 0.361956538102709 0.30017739315326347 0.25200795353686584 0.2126379642400038 0.1792016340747305 0.15005531223407922 0.1243078409476424 0.10151941228853485 0.08149936053686836 0.06416265635396197 0.049443396805928234 0.037235037392684786 0.02736866714353444 0.01961272119052117 0.013689513445106398 0.009298116544332534 0.0061388734425421605 0.003935236009720347 0.002445410090989108 0.0014702341437836575 0.0008530612904347433 0.0004760654921714008 0.0002544930985738901 0.00012964720403225435 6.253451251014059e-05 2.833517717483506e-05 1.1946395142759564e-05 4.632928188596019e-06 1.6310914067250482e-06 5.150112348474308e-07 1.464814812736633e-07 4.152776121104153e-08 1.7349604167407204e-08 1.408081762092223e-08 1.5102110421274864e-08 1.6433280008545003e-08 1.7061804866466068e-08 0.00013781863322009786 0.636278816505096 0.47192250398405433 0.3441004456263072 0.259031627671733 0.2007711889486452 0.1590621019561429 0.12777229360690903 0.10326468817264253 0.08340865515408381 0.06695455700289722 0.0531783933633515 0.0416461608118747 0.03207330173623994 0.024242176765536402 0.01795587798574274 0.013018183334092754 0.009230510598953674 0.006396136002088134 0.004328305306353307 0.0028580993350703155 0.0018397950306283158 0.001152988884179643 0.0007022151447839166 0.00041465783620026997 0.0002366255325628663 0.0001299801852809125 6.837711246207928e-05 3.422785507708621e-05 1.617586150283645e-05 7.147815967026749e-06 2.9188936069618847e-06 1.0864575895235073e-06 3.632620971119368e-07 1.0847249981800554e-07 3.0609422522510354e-08 1.1104215921654737e-08 7.91029421819328e-09 8.361945076190362e-09 9.210656966948432e-09 9.62941805981777e-09 0.00012678128367888002 0.5853595317876515 0.39928583433142156 0.26592623123078524 0.18298847878616886 0.13040602905468435 0.09586554475609807 0.07221029009271504 0.055286142976033695 0.042686582109374586 0.03299979873002935 0.025394499164767066 0.01936424345953838 0.01458196244819526 0.010817413276938088 0.007891789094017174 0.005655257690519363 0.003977437298017902 0.002743884785871387 0.0018557281611251875 0.001229668874880469 0.0007977118765138025 0.0005060574036369755 0.0003134494731789612 0.0001891597817238549 0.00011086664664273491 6.287059966280602e-05 3.432337812441384e-05 1.7926380030118408e-05 8.886766075405568e-06 4.14132785345763e-06 1.7928506864698488e-06 7.108477475933534e-07 2.5400193550772664e-07 8.077294355097518e-08 2.342912664612566e-08 7.679006247096396e-09 4.638764462971274e-09 4.731071758916021e-09 5.273218086619831e-09 5.559134678173947e-09 0.00011812257476222713 0.545408622928902 0.34532449204483984 0.21087484529407544 0.13211749492792263 0.08555355200429483 0.057347396697894584 0.039711087202817234 0.0282595320644234 0.02052192471229534 0.01508774234129526 0.011148309681599642 0.008228254438111756 0.0060373440535305325 0.004388529085670413 0.0031526663432267818 0.0022347356004123737 0.001561429517999779 0.0010746762280031373 0.000728257042584109 0.00048565785781775066 0.00031852694523457455 0.00020526366168950778 0.00012978610985127576 8.036290834419377e-05 4.8584615703604584e-05 2.857472644944232e-05 1.627045524027105e-05 8.913809900416525e-06 4.662331537932098e-06 2.305884901034851e-06 1.0656708207171043e-06 4.53588833502217e-07 1.7479503323335836e-07 5.996376905060534e-08 1.8371909226229727e-08 5.728893311000247e-09 2.8883414232620294e-09 2.748554189400849e-09 3.091082481938961e-09 3.2914776678401045e-09 0.00011175691315603594 0.5160357358818726 0.30788530249964896 0.17487420856952188 0.10073467421952918 0.059383644191153245 0.03601051227728979 0.022541290861731875 0.01457587583505413 0.00971586830113639 0.006640977113555817 0.004623144314914914 0.0032548074328402603 0.0023026253124216454 0.0016285414282570497 0.0011470669343705833 0.0008024655297704275 0.0005566212289208867 0.0003823831940193912 0.00025997527694698484 0.0001748247326907863 0.0001162127526515838 7.629598781351903e-05 4.940906641332236e-05 3.150809080967958e-05 1.972862265493326e-05 1.2088052553181428e-05 7.2137209368287444e-06 4.167822147196619e-06 2.313593279840566e-06 1.2222789759776831e-06 6.073394255090135e-07 2.7972942534032207e-07 1.1733309498289481e-07 4.3951119704597875e-08 1.4549571747121418e-08 4.552088707937925e-09 1.946004746892811e-09 1.6523401669220496e-09 1.860193164518722e-09 2.004436082176382e-09 0.00010729191785406017 0.49543241449658715 0.2831110907412935 0.15249170248059302 0.08243489784891789 0.045064672816723855 0.02502847597960944 0.014191929425664383 0.00825427721371701 0.004943886750482656 0.0030532877076385255 0.0019417546312237315 0.0012666608738742947 0.000842914746471016 0.000568835417181418 0.00038717821935767185 0.0002646240192001481 0.000181002698698727 0.0001236104683793368 8.414694686463545e-05 5.7033448016862495e-05 3.845137477411209e-05 2.575980696013336e-05 1.7126195672539723e-05 1.1280926904222494e-05 7.341663925409856e-06 4.705520144764508e-06 2.9567882666486322e-06 1.8110184358060969e-06 1.073201607365668e-06 6.095967224396539e-07 3.2804902426872584e-07 1.6484561870844391e-07 7.597257362100166e-08 3.1440380369731335e-08 1.1465512430960991e-08 3.772809654966611e-09 1.4373028509973013e-09 1.0407691384246558e-09 1.152985528643731e-09 1.259370593935278e-09 0.00010426138521884205 0.48144809990908305 0.2671796024974557 0.13893895054133834 0.0720529075857678 0.03747899804704463 0.019600676408054202 0.010335643628606693 0.005514344759023545 0.00299087135423664 0.0016565691256581203 0.0009410281083367137 0.0005499302051409016 0.00033097057741609523 0.00020489831520237905 0.00013007953097624302 8.43333641659902e-05 5.558675660021255e-05 3.709809542293529e-05 2.4983226174201337e-05 1.6930995845555994e-05 1.1521005351235223e-05 7.85685030424801e-06 5.359584574418839e-06 3.649911139331065e-06 2.4740449338320275e-06 1.6638157216377667e-06 1.1052286718230125e-06 7.210635439721041e-07 4.5870580380583817e-07 2.819467601945465e-07 1.6553947412872917e-07 9.151785828857513e-08 4.6793382633750935e-08 2.1646429235557012e-08 8.846788001205293e-09 3.182699292295844e-09 1.1605491641587608e-09 6.995301134437128e-10 7.393296904609491e-10 8.190825427356104e-10 0.00010225858017407464 0.47220615904236596 0.25711291188014135 0.13080883665254447 0.06618117049683528 0.03346037094547294 0.016922222086254705 0.008569163091419188 0.004349933927642232 0.0022187333463789863 0.0011399009507691246 0.0005918959575202948 0.00031191185622148976 0.0001675858371964671 9.223529934894251e-05 5.221241011988429e-05 3.048552747827651e-05 1.8378198361312052e-05 1.1429406375830317e-05 7.3150814213346e-06 4.801829286972315e-06 3.2205655443859388e-06 2.198464440822067e-06 1.5217244459466548e-06 1.0642766052848126e-06 7.48943111675492e-07 5.281694853858349e-07 3.714284614590767e-07 2.5892857822115986e-07 1.7762853475203244e-07 1.1883755848118656e-07 7.666436057352844e-08 4.702279470786442e-08 2.6938771420233606e-08 1.4096485047550147e-08 6.561608332269849e-09 2.6632466620480387e-09 1.0018697910013835e-09 5.124007873188824e-10 4.938122301876248e-10 5.534592449891507e-10 0.00010097496084119686 0.46628279680438894 0.2508782954377461 0.1259690414159045 0.0628440806513777 0.03129586261615564 0.015565901214639187 0.007734746865121296 0.0038403264510800754 0.001907000668517013 0.000947658031492745 0.00047181370549152036 0.0002357225877883736 0.00011843931648244199 6.002482799530439e-05 3.0798724738027565e-05 1.6075447768400108e-05 8.583074243908253e-06 4.716354541419158e-06 2.682807629914424e-06 1.587324876605894e-06 9.794416558491318e-07 6.302513146118851e-07 4.217802847401973e-07 2.921916111818672e-07 2.081509288223056e-07 1.5145331380087428e-07 1.1171717940837443e-07 8.28849806183912e-08 6.131438461878015e-08 4.47814418463595e-08 3.191428227172102e-08 2.188139140594789e-08 1.4180491059597994e-08 8.49458732654714e-09 4.574556077990017e-09 2.151148588590546e-09 8.915564724777592e-10 4.141717352571549e-10 3.4734826721869643e-10 3.900528809466383e-10 0.00010018847580489964 0.46265340885384465 0.2471510156406788 0.12315721692054228 0.06096807478003911 0.0301256940557132 0.0148655970721