# vtk DataFile Version 3.0
vtk output
ASCII
DATASET RECTILINEAR_GRID
DIMENSIONS 41 41 1
X_COORDINATES 41 double
0 1 2 3 4 5 6 7 8 9 10 11 12 13 14 15 16 17 18 19 20 21 22 23 24 25 26 27 28 29 30 31 32 33 34 35 36 37 38 39 40 
Y_COORDINATES 41 double
0 1 2 3 4 5 6 7 8 9 10 11 12 13 14 15 16 17 18 19 20 21 22 23 24 25 26 27 28 29 30 31 32 33 34 35 36 37 38 39 40 
Z_COORDINATES 1 double
0
POINT_DATA 1681
FIELD FieldData 1
Concentracao 1 1681 double
0.0 2.559937035202882e-57 2.0148990235601794e-53 1.5794991373447333e-49 7.504677080725114e-46 2.326426536222579e-42 4.912089122502901e-39 7.203561264039486e-36 7.350679525935378e-33 5.155653310091242e-30 2.409979016013507e-27 7.220557685371955e-25 1.3295704271153418e-22 1.4776537249891555e-20 1.0106283215405665e-18 4.435095230510256e-17 1.3122181115160514e-15 2.7388244065050715e-14 4.195776528223259e-13 4.8777030549355725e-12 4.425416016870099e-11 3.2056522486088274e-10 1.8902549638175948e-09 9.219564951381308e-09 3.772627446998211e-08 1.3088731825349813e-07 3.890665201950558e-07 9.994460757644878e-07 2.235704598922071e-06 4.384738670419628e-06 7.586309523255996e-06 1.164355276261343e-05 1.5930796318308963e-05 1.9517484308043386e-05 2.1521668782781805e-05 2.1552888097730498e-05 1.998318831246162e-05 1.7793966010280774e-05 1.600222775722042e-05 1.5073051639986628e-05 1.4821325841860054e-05 3.856734834646106e-57 2.373413209929571e-53 1.868088118352068e-49 1.4644126265977666e-45 6.957866336051132e-42 2.1569169073581393e-38 4.554181236248953e-35 6.678690619143797e-32 6.815089452944768e-29 4.7799986889200564e-26 2.234381531109108e-23 6.694448635984557e-21 1.2326943873434615e-18 1.3699879420327043e-16 9.369912523974372e-15 4.1119423886745866e-13 1.2166064076393207e-11 2.539266371276777e-10 3.890061083947048e-09 4.5223006290779406e-08 4.1029684283000266e-07 2.9720798944125758e-06 1.7525259565237965e-05 8.54780291253448e-05 0.0003497743770927865 0.001213505199085838 0.0036071809809146045 0.009266237748084733 0.020728052118521745 0.040652549415685926 0.07033550821566713 0.1079517252076027 0.14770036101132186 0.1809538845850248 0.19953542718575104 0.19982487311151112 0.18527160029757447 0.16497450290800272 0.14836262855300494 0.13974788982831218 0.137414045962866 4.130222152353956e-53 1.6057114345023055e-49 2.215661298250127e-48 6.83878721530784e-45 2.726160578995317e-41 7.586624071392979e-38 1.4885352804161602e-34 2.0681958277834194e-31 2.0222915082980917e-28 1.3681629599989634e-25 6.190596006653744e-23 1.7975077251272338e-20 3.208754971534395e-18 3.458600527469715e-16 2.29686087022366e-14 9.807089505822083e-13 2.8278736210863006e-11 5.761572710201358e-10 8.630250085900684e-09 9.822906611301665e-08 8.736282213664382e-07 6.210681241278545e-06 3.597641921742816e-05 0.0001725447519308671 0.0006947328621572016 0.00237330756538745 0.006951145630407776 0.017603526556308334 0.03883671375171751 0.07514533691334022 0.12829270635177742 0.19429315664225616 0.26220317994853287 0.31654064776828167 0.34330636029270517 0.3371904896230227 0.3056304863895087 0.26572299107553327 0.23432890235624732 0.21846142943914734 0.2142551470099008 3.1360185151045525e-49 1.2971168212832012e-45 6.021307169514062e-45 6.425506460987163e-44 1.0916142667203653e-40 2.6043843470115527e-37 4.5855166859131265e-34 5.87164299583525e-31 5.378745645581287e-28 3.442781862468352e-25 1.4819976747802017e-22 4.103838630908986e-20 6.994768204060438e-18 7.212243186233856e-16 4.593095738306176e-14 1.8867963416213425e-12 5.24981815932666e-11 1.0353664007882436e-09 1.505183311962514e-08 1.6664602154637637e-07 1.444654887605704e-06 1.0028545088750571e-05 5.680913115649031e-05 0.0002668571595812034 0.001053745126411072 0.0035346348095309068 0.010175970664999536 0.025355100328371155 0.0550819357887617 0.1050213359289405 0.17677461185690754 0.26402222789612534 0.3513439701917879 0.4179161076391369 0.4457877581372931 0.42932957415285605 0.3801368003296098 0.32217955945146287 0.2780506152441115 0.25625203095241356 0.25059053925553865 1.452362561125086e-45 6.239733352988558e-42 2.4335287431454293e-41 9.70412468153978e-41 1.0137900576514014e-39 1.0674332123000803e-36 1.6263104559049393e-33 1.863965843487499e-30 1.5593338130294237e-27 9.229893310568588e-25 3.700834622066612e-22 9.580903528836123e-20 1.530241395848154e-17 1.483650026916797e-15 8.927523639974995e-14 3.4837836808864422e-12 9.254644369576849e-11 1.7502223420778238e-09 2.4494393712384067e-08 2.6195071167190415e-07 2.199596491372075e-06 1.4830141029860679e-05 8.179941450395427e-05 0.00037485049557382517 0.0014466961766278796 0.004751303967071846 0.013412354438399143 0.032815540159206 0.07009028034718273 0.13153309673829838 0.21810943567595445 0.32111355105767014 0.4212931379785006 0.49376835284755033 0.5180934269720031 0.4892696819918154 0.42296874889123365 0.3489544861282 0.29413677956702033 0.2676168499848448 0.2608638693550728 4.4292311932896996e-42 1.946451406558286e-38 6.825019373299454e-38 2.3340573642367553e-37 9.543539730179781e-37 1.0827210416351943e-35 7.374523438023658e-33 7.280131842988632e-30 5.393510100166385e-27 2.868544135308341e-24 1.0425043915779281e-21 2.4577608644071245e-19 3.5902545027667755e-17 3.205118882020028e-15 1.7903960535143978e-13 6.54097507881577e-12 1.6384660684388878e-10 2.941136881202077e-09 3.927272460369788e-08 4.026526318179703e-07 3.2540786734781856e-06 2.1191651787722794e-05 0.00011324277548734598 0.000504204723582204 0.00189540430252491 0.0060770049200218465 0.01678109770749941 0.04023750234959595 0.08436845027461995 0.15566097919067504 0.25409267144936726 0.3686062607613315 0.4767291448723954 0.5506153187163537 0.5684556236939504 0.5265088588471715 0.4442862739339209 0.35634895762419144 0.2927618216785249 0.26258310980106675 0.25504384215312326 9.255542607212571e-39 4.125285765550429e-35 1.3455151557752156e-34 4.1331503461554015e-34 1.461875203677667e-33 6.62539443815608e-33 8.969770720511501e-32 3.9227159790586975e-29 2.4282192702343735e-26 1.111104835225874e-23 3.514917870499514e-21 7.272267166523271e-19 9.406976208609099e-17 7.528191785673506e-15 3.8211979349567965e-13 1.284559966746716e-11 2.992320319051969e-10 5.039499235389713e-09 6.359692365602756e-08 6.200443308253063e-07 4.790167673423208e-06 2.995674253861171e-05 0.00015432525621332196 0.0006648345925738643 0.002425502855726958 0.007569630906773698 0.02039798911462147 0.04784128448103093 0.09832826971398491 0.1781683489979248 0.2860956901984843 0.4087985050364054 0.5211670487315436 0.593305438928496 0.6029141848960818 0.5479001298925796 0.451282283633732 0.35151697159414064 0.2808818740840237 0.24794796993170767 0.23987147720775504 1.3483432307974734e-35 6.065726589639014e-32 1.8757113550797935e-31 5.314237058164769e-31 1.6834195447646755e-30 6.564546763974543e-30 3.5483631876248034e-29 6.565693666037146e-28 1.7092049575669628e-25 5.960066555659176e-23 1.5209555937615962e-20 2.6020297534061864e-18 2.845993052922051e-16 1.9721195310919702e-14 8.861009843263305e-13 2.6855472022868137e-11 5.726244876227836e-10 8.932145363693607e-09 1.0542895784476287e-07 9.690442264694014e-07 7.105302637690152e-06 4.240775657500268e-05 0.0002095661208909004 0.0008696826999687238 0.0030684008270067255 0.009293382877869853 0.02438041697354036 0.055825650194312806 0.11230725471390811 0.19964751315983398 0.31515645789113494 0.4434224890164922 0.5572403663773464 0.6254393856126906 0.6258933688043914 0.5583697970867512 0.4490098104290782 0.33936807725670326 0.26317839418520644 0.22823616725073562 0.21981975128136588 1.3701258668313758e-32 6.203054498447204e-29 1.8389502882391088e-28 4.884103702144474e-28 1.4137428694912276e-27 4.884211566437197e-27 2.1998025176616595e-26 1.5679806409165955e-25 4.1367496010045615e-24 5.626882804500427e-22 9.402412250908625e-20 1.1919964920008926e-17 1.029161936287213e-15 5.895597105031433e-14 2.2694238021800826e-12 6.054866837845e-11 1.1603255814832217e-09 1.6528243644591903e-08 1.8037658425038275e-07 1.5486475574163077e-06 1.0695445039912371e-05 6.0549084985377316e-05 0.0002855193247214754 0.0011364640263388604 0.0038637296361329794 0.011322847891745466 0.02885032885366274 0.06437537829981117 0.12658620486643463 0.22055819155135672 0.3420646609637678 0.4737846557199358 0.5869294608605582 0.6497004126744317 0.6406385346786226 0.5614499580706048 0.440991892902686 0.32322005505913554 0.24273601070860967 0.20638514199514407 0.197780320535142 9.586128338473346e-30 4.3598042992075626e-26 1.247176142564106e-25 3.135409506759721e-25 8.397295403715075e-25 2.6079506712459574e-24 1.010622463122892e-23 5.447031835489793e-23 5.273364390607283e-22 1.4902210170831982e-20 9.987441771719043e-19 7.584979378966604e-17 4.640153588455022e-15 2.0624352778562606e-13 6.526863503331798e-12 1.4895296882155707e-10 2.511800204415506e-09 3.215021012385691e-08 3.204327180828374e-07 2.544280762657464e-06 1.6416654414409107e-05 8.75693650720453e-05 0.0003918673510285547 0.0014895025963643145 0.004862135978273504 0.013747014045809728 0.03393842377070004 0.07366153515611491 0.14139031846392958 0.24123508096839855 0.36738229152087176 0.5008303128867602 0.6116858176850223 0.6680642589070729 0.6495229256618725 0.559680189217002 0.42969270394296766 0.3053172299454206 0.22157334569114073 0.18427982366359402 0.17559809385214328 4.476241003625164e-27 2.042601882518196e-23 5.657681458268641e-23 1.3537232652046982e-22 3.3786771617465893e-22 9.515255811974773e-22 3.2104025157698335e-21 1.3937367128018073e-20 8.710696046989889e-20 9.534389063449751e-19 2.0998129066031163e-17 7.335881613149141e-16 2.7343577293997926e-14 8.665096759608379e-13 2.1405280132694178e-11 4.038081156296157e-10 5.848958445028281e-09 6.608840173623477e-08 5.933618227439841e-07 4.310426811140979e-06 2.576640674080089e-05 0.00012861909217507002 0.0005432226847598105 0.001962894884342607 0.006129349578044776 0.016670440696510382 0.039786738523327786 0.08385322042770135 0.15691425701972 0.2619419711602419 0.39153935330676604 0.5252858782544634 0.6326263630167805 0.6820328781615924 0.6543101143596615 0.5548860611299304 0.4168035554228521 0.2871161926401395 0.20093302581556066 0.16304274284522374 0.15436073702270223 1.3413909094439752e-24 6.136416957336319e-21 1.647646260811158e-20 3.7611355522186216e-20 8.779845412550903e-20 2.252706871811072e-19 6.672035795473049e-19 2.39377592688283e-18 1.103922377485487e-17 7.131378272509939e-17 7.092300526300702e-16 1.0923381111278975e-14 2.1831216182688553e-13 4.483663908529731e-12 8.1342427909474e-11 1.2183202002992167e-09 1.4743256604360551e-08 1.4416294112059601e-07 1.1487463762444603e-06 7.548359386955287e-06 4.142855470784114e-05 0.00019215629835765135 0.0007615985026104956 0.0026042650609212244 0.007751079664183291 0.020221429284902576 0.046552881684667154 0.09511256186731203 0.17331470530017662 0.2828619489993544 0.4148350262544457 0.5476762201750226 0.650581249988705 0.6927305210528961 0.6563082819206412 0.5483848756230335 0.4034932242036999 0.26955874929961504 0.18156080776165057 0.14331359841244157 0.1346789019145431 2.473323419194328e-22 1.1336411383714924e-18 2.9515653793368683e-18 6.435238788076492e-18 1.408206421415486e-17 3.30582042720073e-17 8.672287631056924e-17 2.630209284012684e-16 9.557360393866655e-16 4.3488340011069866e-15 2.6045696941391477e-14 2.1292333775897337e-13 2.2960989191552885e-12 2.8776036857827902e-11 3.617508568800546e-10 4.12244669794343e-09 4.044714375173056e-08 3.3487616183169725e-07 2.3303875826890124e-06 1.3684944930147132e-05 6.83138147755216e-05 0.0002922738589937281 0.0010807913586983989 0.0034812805303354164 0.009840264151508378 0.024555018167547824 0.054411530008666865 0.1075994708028346 0.19071855781268102 0.30411753948054676 0.4374693737059073 0.5683832512413719 0.6661768860847216 0.7010136161778211 0.6565013435925195 0.5411368155842793 0.3905641391673317 0.2532315839082275 0.16386548101098997 0.1254089565076083 0.11684428655390518 2.7549664142866235e-20 1.2646230137030587e-16 3.19396235470737e-16 6.663330559272795e-16 1.371509972158133e-15 2.9654071918897703e-15 6.9748882437817175e-15 1.8314192029323022e-14 5.4962159576512243e-14 1.935105154277485e-13 8.214893015867865e-13 4.316720315830884e-12 2.824271793995057e-11 2.2014325603126928e-10 1.8669632715287785e-09 1.5648157615512094e-08 1.2095885432164445e-07 8.296124417704364e-07 4.959888741591167e-06 2.5705326894330874e-05 0.00011558424746245294 0.00045273970049823653 0.0015528482788440404 0.004690271574938976 0.012545951511790669 0.029862094920250257 0.06355914479785957 0.12147210719088641 0.20922579892624835 0.32578308158329067 0.45957066225616305 0.5876819451790114 0.6798915467663593 0.7075434133908857 0.6556390194435944 0.533849404663382 0.3785672484731862 0.2384872569130832 0.14803868555619826 0.10943813549855169 0.10094457128031084 1.8895133818650174e-18 8.68379593590528e-15 2.1299448470871096e-14 4.262092805335984e-14 8.290761854943605e-14 1.6644663972778948e-13 3.5578009077637474e-13 8.268504022802019e-13 2.124670919730088e-12 6.140772265175396e-12 2.0287131549705015e-11 7.790529991033572e-11 3.5124316502890635e-10 1.8407595768174054e-09 1.0756443552832356e-08 6.564462384268663e-08 3.922395408991887e-07 2.1879138139620103e-06 1.1066467436279296e-05 5.0002086942121566e-05 0.00020063452767551162 0.0007140913792688486 0.002258612803367184 0.0063680462993411764 0.016062780771237385 0.0363727697587301 0.07421468693399355 0.1368878670844515 0.2289123874498711 0.3478899274224039 0.4812103920580858 0.6057724684190272 0.6920966147658931 0.7128403793001782 0.6543055112459207 0.5270542984390707 0.36788601320406705 0.22552726198840486 0.13413530306404328 0.0953815047135809 0.08694195787311003 8.317844615381858e-17 3.826312364450597e-13 9.132581114566924e-13 1.7584626727746605e-12 3.2499635950162785e-12 6.109341560985805e-12 1.201690093044186e-11 2.5176469530826664e-11 5.692901854359182e-11 1.40614672813937e-10 3.833376175922016e-10 1.1653758526819192e-09 3.982345813540409e-09 1.5293927028204713e-08 6.494073078949064e-08 2.941953541865566e-07 1.3567617936122522e-06 6.094938168503155e-06 2.57852993210307e-05 0.00010053929768443886 0.00035682909865616914 0.0011460500035003348 0.0033243239538312086 0.00871050596536224 0.020649125918756887 0.04436986625839838 0.08662466380334442 0.154004369359838 0.2498363321278331 0.3704421040836882 0.5024223584376395 0.6228003206052959 0.7030883992172112 0.7173238598841122 0.6529660338277609 0.5211623976909191 0.35879274495402586 0.21445705122122818 0.12212837026325306 0.08314463618255191 0.07472428374267066 2.469064701227556e-15 1.1366671668402867e-11 2.6443030126710763e-11 4.913645414788316e-11 8.671432321416793e-11 1.5372146783523985e-10 2.811941432120322e-10 5.39209617440296e-10 1.0955072498580804e-09 2.37965567362773e-09 5.566210634506047e-09 1.4112529913352974e-08 3.90028895711782e-08 1.1767315811999527e-07 3.853045386530436e-07 1.3455440417887976e-06 4.86965826412072e-06 1.765923550714799e-05 6.222523271048277e-05 0.00020797675740585908 0.0006486111029666992 0.0018686849327245998 0.004945964195568389 0.011996157812189025 0.026643457287271802 0.05419686139026643 0.10106791438055088 0.17298507465388446 0.272043856677056 0.3934250184240545 0.5232204445203877 0.6388781652421706 0.7131084897262285 0.7213394283451733 0.6520013084378566 0.5165036780164683 0.351494718078628 0.205329887505811 0.1119470497451062 0.07259344794175422 0.06414278955933395 5.1706652335655145e-14 2.381858645206199e-10 5.409463757752216e-10 9.73094814261694e-10 1.6468811563941508e-09 2.7712503108578312e-09 4.756120690993305e-09 8.446506043611605e-09 1.5667580704392573e-08 3.056802096240422e-08 6.307262067330578e-08 1.382286608518601e-07 3.2293436686134347e-07 8.054789068155868e-07 2.140534317791069e-06 6.010434123178002e-06 1.7545679207698777e-05 5.208605194127677e-05 0.00015350343789388642 0.0004393072821396343 0.001199753917121329 0.0030879058337871593 0.007428586895481694 0.01662106370121573 0.0344902251253063 0.06627217003109803 0.11786130079943417 0.19399981924548795 0.29557485818008866 0.4168164309842069 0.5436060015905898 0.6541022980316653 0.7223642049163833 0.725179324729864 0.6517306164748896 0.5133530842221045 0.3461580777165215 0.19817712956772568 0.10350541743946434 0.06357901183230577 0.055030670309352096 7.948241630401261e-13 3.6631959174598602e-09 8.135063123958099e-09 1.4203750750034939e-08 2.3142588374630045e-08 3.7157029714546286e-08 6.026787310651157e-08 1.0009933459573001e-07 1.7164334385288255e-07 3.0573825316704776e-07 5.679804682450164e-07 1.1038707828793973e-06 2.2496776691384997e-06 4.813851391747361e-06 1.080563549192979e-05 2.5340279432754277e-05 6.154554780406225e-05 0.0001527297707740264 0.00038082799569062276 0.0009376331830319971 0.0022437581816552757 0.005151537216207123 0.01123892759997908 0.023140802394175507 0.0447643901440983 0.08110371085844365 0.13736507542634593 0.2172340752965127 0.32047524389893284 0.44060111487676556 0.5635887111537494 0.6685620510774123 0.7310387539343066 0.7290959666501772 0.6524280396192562 0.5119495321750387 0.34293491880245014 0.1930275032803795 0.09671950924603182 0.05595075751845471 0.0472196511202172 9.271838497324357e-12 4.274964873838359e-08 9.295385742400876e-08 1.5787634240310377e-07 2.484772636268631e-07 3.8247758694024183e-07 5.899102460462396e-07 9.236189051646329e-07 1.479136891181454e-06 2.4359695548158837e-06 4.138575785933256e-06 7.271221496971243e-06 1.3232632286770364e-05 2.4963741028746108e-05 4.8795190072479934e-05 9.862566984049767e-05 0.00020511348990545901 0.00043551009454768756 0.0009339061621106333 0.0019977905418668623 0.004209063993325422 0.008633911579347326 0.01707729892174496 0.032322376296699463 0.05820665382377313 0.09929928785948018 0.15999177155199254 0.24289914014532046 0.34680731621708183 0.46478299890252445 0.5831947008320824 0.6823518047866582 0.7393004854588544 0.7333095687623403 0.6543330845978405 0.5125133871435211 0.34197695609167866 0.18992510732053478 0.09152088000325564 0.04956909364112888 0.04054912922864142 8.441193406316183e-11 3.8933032471840185e-07 8.298786737463131e-07 1.3739074689348712e-06 2.094528481305445e-06 3.1029545186353206e-06 4.574757287984493e-06 6.797498017949316e-06 1.025200889748575e-05 1.5770605393322522e-05 2.4814146407800183e-05 4.0010335762448035e-05 6.618619833629778e-05 0.00011238561550778554 0.00019585323819369695 0.0003498075319330337 0.0006386629098300525 0.001186563709710578 0.002228358468796635 0.0041958112019430125 0.007848605092570895 0.014450961240233566 0.025966747417040165 0.04519886401422951 0.07574331175617155 0.12158498910718282 0.18622058103014552 0.27124178879218547 0.37466582140662247 0.48940086141909106 0.6024814489560737 0.6955791933030953 0.7473069054335139 0.7380128208821634 0.6576560098159301 0.515248899312761 0.34344701632127816 0.18894271233707763 0.08786795045456976 0.044310384730172146 0.03486946077654386 6.135834545993037e-10 2.8307959400106605e-06 5.921925744286661e-06 9.573508353292054e-06 1.4175112090753648e-05 2.0283353390081746e-05 2.8715559446848807e-05 4.0717292893570735e-05 5.824058106811238e-05 8.439922680081046e-05 0.0001242381389101298 0.00018606844579059187 0.0002837856910002107 0.00044090945201083026 0.0006977006555394908 0.0011236527322529164 0.001838845893312637 0.0030498159289240032 0.0051062908699671065 0.008586772109491828 0.014414840582476962 0.023995750145471912 0.0393395791500213 0.06311424757673802 0.09850571686892462 0.14880229973158393 0.21657887773328452 0.30254941693787935 0.40418900286187454 0.5145385774991685 0.6215432313193565 0.7083716669961133 0.7552104631191321 0.7433721347119465 0.6625779982273522 0.5203530345467245 0.34752915964941916 0.19019161412649305 0.08575462751679991 0.0400730028348669 0.030045265496234114 3.6307111030792118e-09 1.6754263776513414e-05 3.443158581680699e-05 5.443333923078221e-05 7.847615622975621e-05 0.00010878683018881481 0.0001484651567095675 0.0002019203880397485 0.00027556428305578525 0.0003788939458224049 0.0005262809422206136 0.0007394400944740325 0.0010518081476905698 0.0015150396813392868 0.0022096178768456773 0.003261597008447208 0.0048672403567405174 0.007332778013287679 0.011127716420662534 0.01695759454275175 0.025853986568941816 0.03926153319204436 0.05909859237615095 0.08773660113954262 0.12782196383064132 0.18188699739729824 0.25166265956636 0.33715332529771985 0.43556915217254133 0.5403417771304062 0.6405268909070102 0.7208818855208845 0.7631586980310281 0.7495274116850696 0.6692504853310755 0.5280136558957343 0.3544346255499602 0.19383430098517346 0.08522140375770453 0.036780437735341065 0.025955856067799155 1.7770543404464136e-08 8.2019136420657e-05 0.0001657444292159657 0.0002566359528166697 0.00036093189115141627 0.0004861080758768341 0.000641848430646345 0.000840835280051071 0.0011004740247346448 0.001444727005220139 0.0019072720094358165 0.0025352784836390804 0.0033959432807831053 0.004585186095340139 0.006239609251753338 0.008555310756807096 0.01181175438011647 0.016407156838968723 0.022901054723363463 0.0320668183088379 0.044946739585026776 0.0628967977456546 0.08759883506805866 0.12100125951787755 0.16514476650474263 0.22183430646233696 0.2920837985712089 0.37542155238592473 0.46904800967076943 0.5670149260825401 0.6596304653410443 0.7332922665947051 0.7712978436754672 0.7565899339547408 0.6777899380309143 0.538405674125465 0.36440267508666147 0.20009488171989478 0.08636461221068972 0.03438645300604004 0.02249482440530704 7.297210720837067e-08 0.00033685086834831315 0.0006697896307920439 0.001017061902453234 0.0013979824897160258 0.0018338432732220322 0.0023497619728745493 0.002976626249811688 0.0037535335917619774 0.004730588167362498 0.005972996627493559 0.0075660070037275404 0.009622226003767035 0.012290626738215647 0.015766248441767116 0.02030852375903546 0.02625801057162819 0.034062612652567825 0.044302518149704 0.057725659658302474 0.0752676590602615 0.09807076595893706 0.12747437381345145 0.16494069587761406 0.21191781121548897 0.2695786620091308 0.33841709900033157 0.41771765019032153 0.5048992008092137 0.5948131960878793 0.6790963457984868 0.7458103670991644 0.7797690604976544 0.7646410408293729 0.6882753090922521 0.5516907618018245 0.37771139671551557 0.20927442199985963 0.08935622516992064 0.032882023137260914 0.019570306910257698 2.540594135474651e-07 0.001172916238253178 0.002296368911114422 0.0034238136038860583 0.0046075718993912555 0.005900101599094494 0.0073582330071729615 0.00904526701792022 0.011035025692927915 0.013415856180144884 0.016291935271179683 0.01979140692066573 0.02406954399538015 0.029317944952168436 0.03576815897440641 0.043705286740292816 0.05347617852352779 0.06550388217612454 0.08030229890602522 0.09848659224303649 0.12079124244484735 0.1480665956217602 0.18125662328859868 0.22136230126018636 0.2693190596735854 0.32584076912758947 0.39109963714761314 0.46435584341510655 0.5434236087077003 0.6240504840220679 0.6992407888596248 0.7586927730131973 0.7887245332857123 0.7737259882345819 0.7007179196936784 0.5679701060822806 0.3946307889268321 0.22173404635642113 0.09444406090140825 0.0322991001661023 0.01710152390770359 7.578440973398947e-07 0.0034990832795806916 0.006749851447636657 0.009891812373355036 0.013052012921136601 0.016348432774502573 0.019894724583820723 0.02380668007874601 0.028205169472774745 0.03322025796885244 0.0389938888789018 0.04568408843543692 0.05346656812633646 0.06253948345048346 0.07312426865007894 0.08547071481644687 0.0998617977023827 0.11661934996570233 0.1361093219877028 0.15875049270554373 0.18502840047916963 0.21547643928884086 0.2506952854195637 0.2912991159716787 0.3378610028058294 0.39081030048450766 0.45019527638713247 0.515411956704793 0.584782886488836 0.6549828446259538 0.7203534855419087 0.7721867571809391 0.7982987693960956 0.7838548185872095 0.7150802151309116 0.5873151939847278 0.41546587646841276 0.23794210976277427 0.10199646587860865 0.03273047360671235 0.015020644334242848 1.953546465613476e-06 0.009020508830660745 0.0171540394464602 0.024733004863417722 0.03204356079944982 0.03933207973771144 0.046814322501436946 0.054685898244136846 0.06312959195564696 0.07231546613338044 0.08241248345356768 0.09358345952456856 0.10598972846777407 0.11979155905208011 0.13514908387543437 0.15222320092928468 0.17118107383253758 0.19219653577940818 0.2154591608256326 0.24118424144885003 0.26962211831775373 0.3010630189801771 0.3358397756851236 0.37431999647153513 0.416863892809949 0.46377818737166276 0.515125666302136 0.5705445663363887 0.6288902836686471 0.6877296243483119 0.7426676622356211 0.7865192086399359 0.8086072656420544 0.7949877190863313 0.7312375918888661 0.6097062870054617 0.4404929817151006 0.258447041835862 0.11251280224630972 0.03434371787083816 0.01326954054943204 4.384969204949544e-06 0.020248821269407514 0.037976041117455166 0.05391417448367715 0.06867167942721357 0.08274190283489372 0.09652703242649704 0.11035782800061962 0.12451058139900834 0.13920774122963336 0.15464257431471856 0.17097147742821225 0.18832189416410391 0.2067949804269456 0.22646830085641037 0.24740170371724984 0.2696433440072411 0.2932349624629806 0.3182241134678604 0.34467438853815674 0.3726813519879443 0.4023834432307694 0.4339722865897645 0.46768778416123463 0.5037999234691389 0.5426033897115479 0.584250014749758 0.6286380590008681 0.6751161907553622 0.7220533469577758 0.7661932283617844 0.8017903772660844 0.8196913807021391 0.8070141025609058 0.7489631169659885 0.6349996694580299 0.4699261734838766 0.28387160583176735 0.12665912648481006 0.037410875811415806 0.011798987114399966 8.628816477102288e-06 0.039847765063715304 0.07372778735781985 0.10313714229687833 0.12929308378567259 0.15314993176559072 0.17545209692274363 0.19677824757967308 0.217578452019675 0.2381806984742461 0.25884418217207833 0.27974898148090754 0.3010156957641608 0.3227174446467895 0.3448848006034134 0.36752120005529504 0.39061150988437066 0.4141328814762353 0.4380693708976721 0.46242402054568243 0.4872345778956525 0.512583689766528 0.5386155320661166 0.5655326733130129 0.5935876153803793 0.6230902576832531 0.6542904163052341 0.6872976665080848 0.7218595783384135 0.7570013168155493 0.7904504038294732 0.8177886958909937 0.8314013200378197 0.8196858245590137 0.7678773695828037 0.6628755292724495 0.5038532507414095 0.314884786600399 0.14529734959739937 0.042349499894571235 0.010567631657287073 1.4977710656793098e-05 0.06916919486300394 0.126282013489138 0.1741610584444447 0.21507321318619535 0.25076888556507404 0.282586581046364 0.31154039159577857 0.3384026738280851 0.3637227812767361 0.3879214495200338 0.41129098006482434 0.43402621614878245 0.45625132148103237 0.4780344399343392 0.4994064994584641 0.5203788541348697 0.5409505594894988 0.561129251931247 0.5809392267997054 0.6004364210645461 0.6197138208013047 0.6389172719745108 0.6582439398489309 0.6779352402228175 0.6983060528653856 0.7196433391803413 0.742175361578753 0.7659031684804298 0.7903321776661589 0.8139826536843905 0.8336174441777323 0.8431424044897048 0.8324619950934756 0.7873587739100087 0.6927468451074218 0.542134521399095 0.3521339272295486 0.16951602968162902 0.04978283289988646 0.009540955881483898 2.3059058455306876e-05 0.10649258320638387 0.19184052237755617 0.2609164345686724 0.3176008287206576 0.3648645556790609 0.4049565666631717 0.43957364083850015 0.4699966975117025 0.49715238504941356 0.5217535198903267 0.5443148339555482 0.5652105636145193 0.5847097246129643 0.6030077675098969 0.6202463698704862 0.6365350600942672 0.6519676182544409 0.666631378785781 0.6806192433292629 0.694037895959742 0.7070143678339333 0.7197014077613605 0.73228196854075 0.74496438820885 0.7580061991210892 0.7716549163156624 0.7861364449984513 0.8015473785189564 0.8176679697661671 0.8335861487286449 0.8470403229336996 0.8533702659239822 0.8441637953769244 0.8063176498170577 0.7236046531578021 0.5842441841385201 0.3961193303811293 0.2006330053446231 0.060626849002208 0.008690363362503055 3.164082572867984e-05 0.14612776706311764 0.2596447067870371 0.34821262562915767 0.4178745591370373 0.47321868596997524 0.5176966169377597 0.5538974213207005 0.5837704290568453 0.6087450884086091 0.6299230162971537 0.6481234678962198 0.6639650563281011 0.6779204386835697 0.690356916498922 0.7015678627999474 0.7117927268518963 0.7212373898702178 0.7300841879089857 0.7385011245255516 0.7466458246574007 0.7546713651718202 0.7627263688674197 0.7709586187718932 0.7795111337630026 0.7885384825957779 0.7981772564218004 0.8085446541237644 0.8196823246484946 0.8314377880456006 0.8432084149155447 0.8534334162018059 0.8586844727228377 0.8522714193389062 0.8227140390391297 0.7536717106635978 0.6289816626162424 0.44695452522084655 0.2401474799125178 0.07620662643972148 0.007992376646634998 3.886656038608129e-05 0.17950042598241692 0.3142849794405653 0.4152940715450712 0.49106275332372606 0.5480040531276942 0.5908954814122876 0.6232902565963448 0.6478403281639437 0.6665005718922484 0.6807597921352618 0.6917338183285385 0.7002739357284051 0.7070383900681286 0.7125460317581748 0.7172155675176948 0.72139249683685 0.725369440496317 0.7293994748257261 0.7337036919354253 0.7384758601642185 0.7438836366279814 0.7500683661204889 0.7571430078165166 0.7651907439732063 0.7742592551498705 0.7843609112128155 0.7954585074236284 0.8074436562623402 0.8200691775244291 0.832792158699946 0.8444259932207602 0.852433508138424 0.8516666280047356 0.8325551866926565 0.7796793536010584 0.6739062583189689 0.5039147415545632 0.2895659466684672 0.09841053431681589 0.007427878557724612 4.295573975291869e-05 0.19838689437127172 0.3416567906334345 0.4440427173803852 0.5164929677435653 0.5671311728023021 0.6019275012350503 0.6252627174603838 0.6403560489440775 0.649565355438065 0.6546464735441575 0.6569041440143897 0.6573215954863986 0.6566494771326464 0.6554737475549063 0.6542618028529733 0.6533966346431462 0.6531997480855567 0.653947283066409 0.6558805768185534 0.6592114651549492 0.6641224786798294 0.6707661727031113 0.6792599713682731 0.6896836218388257 0.702049515403372 0.7163210179405212 0.7323748539562757 0.7499856262744272 0.7687755148771684 0.7881237212089688 0.8069388559893207 0.8231734873357164 0.8328174487612326 0.8281347750765815 0.7953846771196978 0.7141662173594483 0.5