# vtk DataFile Version 3.0
vtk output
ASCII
DATASET RECTILINEAR_GRID
DIMENSIONS 41 41 1
X_COORDINATES 41 double
0 1 2 3 4 5 6 7 8 9 10 11 12 13 14 15 16 17 18 19 20 21 22 23 24 25 26 27 28 29 30 31 32 33 34 35 36 37 38 39 40 
Y_COORDINATES 41 double
0 1 2 3 4 5 6 7 8 9 10 11 12 13 14 15 16 17 18 19 20 21 22 23 24 25 26 27 28 29 30 31 32 33 34 35 36 37 38 39 40 
Z_COORDINATES 1 double
0
POINT_DATA 1681
FIELD FieldData 1
Concentracao 1 1681 double
1.0 1.0 1.0 1.0 1.0 0.9999999999999718 0.9999999999947929 0.9999999997432686 0.9999999949456829 0.9999999484106765 0.999999681434277 0.9999986750802815 0.999995991888079 0.9999906430739482 0.9999823102337767 0.9999717781686009 0.9999605999599178 0.999950294994486 0.9999417459692397 0.9999351227212108 0.9999301558257149 0.9999264456315308 0.9999236385169756 0.9999214788239292 0.9999197946033467 0.9999184734538029 0.9999174358314454 0.999916624266761 0.9999159949408487 0.9999155131769342 0.9999151506915631 0.9999148840163062 0.9999146936381562 0.9999145626967736 0.9999144770605404 0.9999144246384193 0.9999143954591793 0.9999143814850268 0.9999143762602787 0.999914374930816 0.9999143748163238 1.0 1.0 1.0 1.0 0.9999999999996999 0.999999999738557 0.9999999517228157 0.9999976197466633 0.9999531395389974 0.9995216961192624 0.9970464582335445 0.9877161745821157 0.9628392978050038 0.9132484448237675 0.8359915722234155 0.7383448634485547 0.6347075169543536 0.5391663347010656 0.45990512955175306 0.3984985240447034 0.3524485813300243 0.3180499857129833 0.29202417853390294 0.2720008579000094 0.2563858200140235 0.24413694929499125 0.23451676498441337 0.2269924457669488 0.2211577302533897 0.21669111711655825 0.2133303798945485 0.21085793401516637 0.20909286710228153 0.20787886065219308 0.20708489515829742 0.20659887010041858 0.2063283384703401 0.20619877888468807 0.20615033829464965 0.2061380123497266 0.2061369508502489 1.0 1.0 0.9999999999999998 0.9999999999999987 0.9999999999977559 0.9999999986191238 0.9999998110086823 0.9999923696717691 0.9998698673678497 0.9988127873635658 0.9933177123364237 0.9743411423196783 0.9276800547941613 0.84163010405592 0.717604865381735 0.57299996666346 0.43232732580751676 0.3146511540258658 0.22723634499315346 0.16745580913156172 0.12829136227455337 0.10274452011740093 0.0856710497276535 0.07383853396418096 0.06535326452371511 0.0591241965488735 0.05448181674637788 0.05099979716221413 0.04838921132320582 0.046443956993285775 0.04501031372682483 0.04397346637718711 0.04324426551884963 0.04274817274144594 0.04242742791957553 0.04223336192807102 0.042127521970659255 0.04207833954449363 0.04206088788144473 0.042057045267712645 0.04205669716182443 1.0000000000000002 0.9999999999999998 0.9999999999999986 0.9999999999999222 0.9999999999646394 0.9999999905967311 0.9999992299508862 0.9999771393517883 0.9996829154236231 0.9975185406322642 0.9876230555815573 0.9569754777830731 0.888530877822841 0.7729621942498757 0.6197887744932211 0.45537849081492066 0.308479000450692 0.1963066254026709 0.12105016971167513 0.07524655589355442 0.04895338455120058 0.03407133758166706 0.025409892587479388 0.02008805017755315 0.016621094493960608 0.014256123061849058 0.012590144780862476 0.011394107392313038 0.010527853935585255 0.00989984762184003 0.009447101075275029 0.00912535392572519 0.008902290444945206 0.008752576736129041 0.008656917475520755 0.00860013578960364 0.008570092821395276 0.008556658540361004 0.00855249504281137 0.008552162663252058 0.008552429429184959 1.0000000000000002 0.9999999999997458 0.9999999999980967 0.9999999999682885 0.9999999984047073 0.9999998969022063 0.9999960409909184 0.9999236307209968 0.9991976753061834 0.9948498609623309 0.9779069370870437 0.9318725752924929 0.8399522510665235 0.6993938618311865 0.5292481699501894 0.36162559596440047 0.22394354198007513 0.12750612451920323 0.06855118092304134 0.03624371019061954 0.019823474706740996 0.01173421515474068 0.007668336731400423 0.005489168571430755 0.0042193180552475285 0.003422389777824753 0.002894406377065619 0.002532380906104912 0.002279255220123998 0.0021007361144769494 0.001974893718228229 0.0018870933218799874 0.0018270997364979071 0.0017874662989040462 0.0017625465453061158 0.001748063010508379 0.001740701697905112 0.001737670480287826 0.0017369681053627712 0.001737177822809633 0.0017373461002748159 0.999999999999949 0.999999999775421 0.9999999988072609 0.9999999916720189 0.9999999033057841 0.9999983839664861 0.9999741907672846 0.999707356829962 0.9978179066745674 0.9889854112653024 0.9604807718386263 0.8939095469002497 0.776776234235509 0.6162050807901772 0.4398484125355968 0.28091357628739866 0.16092158338700377 0.08355243931808398 0.040125781277291626 0.018442446460900087 0.00854172382545563 0.004244576167154889 0.0023759431320205227 0.001512202473398697 0.0010696473637642025 0.0008175328739843776 0.0006615211494606869 0.0005596362061285423 0.0004909275316528966 0.00044380316094508006 0.00041131709407228487 0.00038905969873669527 0.00037410230247356645 0.0003643802419997508 0.0003583871153278759 0.0003550078382608112 0.00035338159568728606 0.0003528068528771699 0.0003527706507899093 0.0003529044950070298 0.000352976365837039 0.9999999999905582 0.9999999580020079 0.9999998341839464 0.9999993124854084 0.9999963474094765 0.9999751280041256 0.9998150614110134 0.9987835988348424 0.9937680384816623 0.9759292683919482 0.9291919347397884 0.8367402794948704 0.6949412373711502 0.5220274665222989 0.3505945785946995 0.20964890596385016 0.1118607984171133 0.05367161128758001 0.023502678859337846 0.009636990747577673 0.0038644162081995425 0.0016187743372440776 0.0007631798873866748 0.00042248373681001304 0.00027121774909893645 0.000194244909150024 0.00015018531063054155 0.00012288582165279229 0.0001051496536885578 9.332010876910597e-05 8.534486685997158e-05 7.998283978811894e-05 7.643940864271128e-05 7.417933234173015e-05 7.282022316726923e-05 7.208318865506123e-05 7.175821504616691e-05 7.167331646097384e-05 7.170451964178398e-05 7.176225299576547e-05 7.178817813186536e-05 0.9999999995335817 0.9999979039816284 0.9999932136570479 0.9999793617490427 0.9999294692829749 0.9997216646649856 0.998809126154141 0.9950885113756301 0.9824077463074591 0.9480818110882249 0.8754452654323243 0.7544607210259295 0.593529417342729 0.41962433379934116 0.264374491017161 0.14806559093839694 0.07387582280497099 0.033040408284838535 0.0133904393916425 0.005009436159924883 0.001787612004581765 0.0006444403909694183 0.0002554573201311068 0.0001205727868800881 6.898491174437022e-05 4.590971552165198e-05 3.3844643698429916e-05 2.6791226485113505e-05 2.2383215843799664e-05 1.9524791185146032e-05 1.763971245527793e-05 1.6396372873812505e-05 1.5589569449484348e-05 1.5085906333999635e-05 1.479219950578552e-05 1.464149565528724e-05 1.4583938142122931e-05 1.4579180171096088e-05 1.459747899287622e-05 1.4618034896563166e-05 1.4626446633207501e-05 0.9999999907725853 0.9999582519600402 0.9998828425526788 0.9997106171582475 0.9992545549142978 0.9979284991271035 0.9939533201195835 0.9826209671486813 0.9541703380900046 0.8942322235329578 0.7908201295072903 0.6452456955072615 0.4770616847913379 0.3159142055057444 0.18630988699175718 0.09774892783756567 0.04573116784066961 0.019176063842227496 0.007266868690121923 0.002522055882454645 0.0008208058604878864 0.0002619044092172681 8.866444688526965e-05 3.534121714159106e-05 1.7670341680683708e-05 1.0799607654123474e-05 7.564496585940509e-06 5.793679420409399e-06 4.731520823936829e-06 4.062066336570048e-06 3.6301963530995334e-06 3.350803809696095e-06 3.173077203081364e-06 3.0648706794087397e-06 3.0042377191902306e-06 2.975568605374725e-06 2.967339415077159e-06 2.970277126949908e-06 2.977485830649205e-06 2.9840304481722938e-06 2.986607812487464e-06 0.9999999051826564 0.9995689838376088 0.9989188225217156 0.9977115685366195 0.9951787267838349 0.9895135238682894 0.9766932535015177 0.9489918461784854 0.8949586204809924 0.8035089974231756 0.6725090311067768 0.5149866434891204 0.3558868237788616 0.22011904506425806 0.1214207638549982 0.059730935472542955 0.026269206094765234 0.010374229646338318 0.003702881883374021 0.0012063801640460076 0.0003648634007570515 0.00010584031258647075 3.142079317159045e-05 1.0642866022518862e-05 4.579389375188452e-06 2.5335250928040443e-06 1.677382828805016e-06 1.2427166209582267e-06 9.93298630072994e-07 8.405789495209458e-07 7.44209575955729e-07 6.830946853088849e-07 6.450665001823077e-07 6.2260398801338e-07 6.106795087741557e-07 6.05740556513786e-07 6.051779933983765e-07 6.06893136316407e-07 6.093059597906022e-07 6.11273114709336e-07 6.120302989923518e-07 0.9999994098459352 0.9973081972876948 0.9938467022417781 0.9884696968741284 0.9791501070130482 0.9621878579460926 0.9313343438525129 0.8777882231583846 0.7928827674429607 0.6737182858965334 0.5289311433649425 0.37807753731215865 0.24357119933342505 0.14062478442878967 0.07261370768677798 0.033554969948434966 0.01391142214785246 0.005194583422446692 0.0017563097987847562 0.0005417617295717973 0.00015434103860649453 4.1577221526019444e-05 1.1130188868077108e-05 3.267076925697679e-06 1.2033004450566322e-06 5.937446893794305e-07 3.6894992774332576e-07 2.641930304695523e-07 2.0694525613767947e-07 1.729202061277131e-07 1.519238740056136e-07 1.3888223511746668e-07 1.309688846206099e-07 1.264697370494536e-07 1.242591676238728e-07 1.235489316243318e-07 1.2375479955590973e-07 1.2440701585063624e-07 1.251477962927619e-07 1.2571322696102922e-07 1.2592679460005924e-07 0.9999975240356637 0.9886781174004843 0.9761143644426427 0.9595189899759254 0.9351720611828878 0.8978831155488926 0.8411352624867179 0.7587999259675803 0.6489104631064584 0.5174581867246593 0.3791877683886837 0.25248219461630916 0.151635975411267 0.08182844530157089 0.039637370637257995 0.01725305672403967 0.006764993800871651 0.0023977718003944464 0.0007716895256584399 0.0002268698919169675 6.14841061255254e-05 1.5625470271190696e-05 3.863868384898935e-06 1.008641873788729e-06 3.202052194403433e-07 1.392611078757521e-07 8.052761240320527e-08 5.5650389942311005e-08 4.2774563304033775e-08 3.5356735933431143e-08 3.0882412183651014e-08 2.816479614403394e-08 2.6563443592898473e-08 2.5698177037890344e-08 2.532227396468809e-08 2.526301182112307e-08 2.5391995567022978e-08 2.560471179556803e-08 2.581990816474423e-08 2.597742137581271e-08 2.6036211477747192e-08 0.9999924405027001 0.9653658935659368 0.931957339679569 0.8940971749525539 0.8464375304960324 0.7837513824998994 0.7018428319389846 0.5996996706555406 0.48191604446131675 0.35912879694312294 0.2452976638075527 0.1522511673801376 0.08541217102360359 0.04319879149941426 0.019692265454815422 0.008101407009114363 0.0030151776035143643 0.001018442404950271 0.00031341588110868926 8.830373900819944e-05 2.2938674049355797e-05 5.5637558252735876e-06 1.294907645478449e-06 3.0842712518515157e-07 8.583185672081526e-08 3.2724599317859005e-08 1.7450327741765915e-08 1.1612789775107557e-08 8.769170422433064e-09 7.1846384575911325e-09 6.251258213765398e-09 5.698171228362254e-09 5.3838434910421255e-09 5.225793554192545e-09 5.170990713429456e-09 5.182176861790485e-09 5.231298661929838e-09 5.295263089568498e-09 5.355554058676944e-09 5.398410091739046e-09 5.414314420344563e-09 0.9999821862378154 0.9182629541995103 0.8494500476795901 0.7822637582788645 0.7092345209702167 0.6257802642371579 0.530606161198589 0.4266193874680693 0.32101365481743704 0.22336935714291709 0.1423803650962008 0.0825867569367256 0.04341935226744067 0.02065769952660079 0.008895812440741667 0.003472415255395197 0.001231542931454111 0.00039802703930877804 0.00011762791591602466 3.19173593434657e-05 7.996626061350825e-06 1.8675344554665088e-06 4.1492099581531376e-07 9.217386378967367e-08 2.2983625906458756e-08 7.701318309106816e-09 3.756601093578233e-09 2.4005071959373425e-09 1.7827961271934924e-09 1.4508242472294147e-09 1.2601696812811957e-09 1.1503683713904302e-09 1.0908260835629357e-09 1.0640374162627186e-09 1.0587944147896245e-09 1.0671671566998886e-09 1.083061674679879e-09 1.1013530825088899e-09 1.1178412408534193e-09 1.1293213529033556e-09 1.133548511749687e-09 0.9999660112332504 0.8438587661739574 0.7289035231457296 0.6321165425662755 0.5411718865691426 0.4504381556108226 0.3592650852362987 0.2708690833152467 0.19070431994259326 0.12406589518716508 0.07400380237681184 0.04025775466634256 0.019914807048514224 0.008949956176763536 0.0036559427901622916 0.0013596286822335978 0.00046140480926664854 0.00014327389621861518 4.08340856127884e-05 1.07201981802073e-05 2.6041648313630036e-06 5.897556548944672e-07 1.2643547111714518e-07 2.6661850059277727e-08 6.092338425207798e-09 1.811571924686949e-09 8.037474922024132e-10 4.915640292240412e-10 3.5939557769579873e-10 2.9113982528300753e-10 2.5302372290751545e-10 2.3180929740762794e-10 2.210397057592628e-10 2.17050705900666e-10 2.1753166947109156e-10 2.2079831072965775e-10 2.2554108713325385e-10 2.306047518509654e-10 2.350332421739249e-10 2.380711905572783e-10 2.3918924918291693e-10 0.999945304380687 0.7484914839228536 0.5863737469428872 0.4687647537170326 0.3735008707857043 0.2905927849777455 0.21693845316977603 0.15311143957793724 0.10092865003910534 0.0615345888391393 0.034464376364770406 0.017654154720128705 0.008252302684797284 0.0035183311790910345 0.0013691760376141479 0.000487156740714479 0.00015884140733123342 4.7583026702228924e-05 1.313362175149812e-05 3.3504340627703056e-06 7.93048936321563e-07 1.7519275701626024e-07 3.654928291560716e-08 7.417863946045157e-09 1.5853281566034632e-09 4.2451333796508684e-10 1.7094946998168827e-10 9.972799494901495e-11 7.18393613056733e-11 5.806064446573631e-11 5.061010921806254e-11 4.663898066830112e-11 4.4813306507514197e-11 4.4383136331974354e-11 4.487440611454529e-11 4.5937185421322295e-11 4.7284906618058735e-11 4.8660089997879287e-11 4.983646431003947e-11 5.0633983018343657e-11 5.092609617433784e-11 0.9999230475141078 0.6458686592170809 0.4457373764455709 0.32075004502868665 0.2339246852703613 0.1684042261424506 0.11706382381008218 0.07721803848124979 0.04769914225744268 0.027321889859020364 0.014418242478973935 0.006982332496331426 0.0030970365183432404 0.0012579934748706623 0.0004683652127216368 0.00016010251941279478 5.036015600683615e-05 1.4613552591869638e-05 3.92214449880741e-06 9.76397865421791e-07 2.2620881972798222e-07 4.900375458253169e-08 1.001912919502179e-08 1.9784617091844535e-09 4.0239296410227517e-10 9.869938213082458e-11 3.613741933723868e-11 2.004674340492096e-11 1.4237646425802372e-11 1.1507444537149065e-11 1.0086379580773002e-11 9.373175020710596e-12 9.095533214737224e-12 9.10385877757761e-12 9.302733727957316e-12 9.6195821127728e-12 9.99127677639322e-12 1.0359229336531045e-11 1.066951776219033e-11 1.0878589240846982e-11 1.0955654374633011e-11 0.9999022852163033 0.5500303301497514 0.3264347739175361 0.20609373891754262 0.1347747032472661 0.08855735261887225 0.05688725434261724 0.03496109179286848 0.020235075769909686 0.010909058491949866 0.005440122379378777 0.0024994744146718544 0.0010561139846053701 0.0004103511605029305 0.00014675525201725438 4.83897146970831e-05 1.4743275694409042e-05 4.160546111664235e-06 1.0901466543279616e-06 2.659115229086992e-07 6.055692127618274e-08 1.2926668795529296e-08 2.6056837967870427e-09 5.050867923077388e-10 9.917730365870628e-11 2.267236624396789e-11 7.588177689346962e-12 3.993277150395864e-12 2.7977995957264265e-12 2.2668799965040877e-12 2.0034077197012544e-12 1.882253583079004e-12 1.8490542476883045e-12 1.8746111156772016e-12 1.9397558341442472e-12 2.0296646093373556e-12 2.13020553670747e-12 2.2278800266462817e-12 2.3095500456141244e-12 2.3644739044254334e-12 2.384709523637772e-12 0.9998848864725504 0.46962561845669804 0.23664811957027954 0.12807132330077506 0.07327255755479999 0.04309518032360396 0.025260303594163716 0.014365660641092012 0.0077704792368704255 0.003943086008575382 0.0018614111868471793 0.0008136156837509754 0.0003285688390952692 0.0001225522225172087 4.225649703001176e-05 1.3490874291227085e-05 3.996307234055469e-06 1.1009143801472228e-06 2.8271292404159465e-07 6.783836678501562e-08 1.5249186988521453e-08 3.2219996809829595e-09 6.437228344252655e-10 1.2339509289144933e-10 2.3671916657451366e-11 5.126426798335737e-12 1.5814281002988224e-12 7.883349018635678e-13 5.450766265256059e-13 4.4383589978204423e-13 3.966416512533239e-13 3.7781700188963593e-13 3.76725998460151e-13 3.8776767776368125e-13 4.072179105310214e-13 4.3195853240577717e-13 4.588377037424547e-13 4.846993662663916e-13 5.06219009799103e-13 5.206812493117393e-13 5.260119469911512e-13 0.9998713083541706 0.4068014362424309 0.17456555833846435 0.07995493931452659 0.0390766527719005 0.020053274051611853 0.010508725316778267 0.005456505257640791 0.002737643383786545 0.0013033310476764212 0.000582138810684489 0.00024235065350133942 9.37398114365646e-05 3.3656568776895534e-05 1.1223788292842568e-05 3.480935531355794e-06 1.0060262980345736e-06 2.7151412394730746e-07 6.858535688364598e-08 1.6250032403560682e-08 3.6199136280967455e-09 7.603087311672388e-10 1.5129975694589685e-10 2.886306185848164e-11 5.4630702825970746e-12 1.1374712530924288e-12 3.2672247429909424e-13 1.542270318835215e-13 1.0527859219527233e-13 8.637050282827313e-14 7.829068788331678e-14 7.583090840340384e-14 7.696343932368926e-14 8.06429040929541e-14 8.614715271617309e-14 9.283483390330107e-14 9.99894511360092e-14 1.0683246293214226e-13 1.1253435621997746e-13 1.1636930174292707e-13 1.1778472230033646e-13 0.9998610867159536 0.3594477869741992 0.1335771133137416 0.05203551980831153 0.02146278912433584 0.009373087708581446 0.004270586932042178 0.001978171830984897 0.0009059620685853471 0.00040077848150947516 0.0001685234685183658 6.669394932235808e-05 2.4709914312982425e-05 8.55152321551794e-06 2.7636180046576895e-06 8.348142537053625e-07 2.3607406047212246e-07 6.261436234725801e-08 1.560955687593016e-08 3.664798532270073e-09 8.12005919187713e-10 1.7020945240793626e-10 3.3889341092765914e-11 6.470325358247013e-12 1.2184651020075816e-12 2.4708665830289143e-13 6.682592475787692e-14 2.9898079605835207e-14 2.0155047785078678e-14 1.6702773229762315e-14 1.5406614709258404e-14 1.5223043694469317e-14 1.57751179697021e-14 1.687352042074667e-14 1.8384719248467704e-14 2.017391138013785e-14 2.2075847802757456e-14 2.3895185629363732e-14 2.5417464563291717e-14 2.6444555373748633e-14 2.6824525084051917e-14 0.9998534466397976 0.3240107352788582 0.1067416171604594 0.03612575659596435 0.012694593059326182 0.004673930236851907 0.0018053306628017015 0.0007232955877845639 0.0002941184743093885 0.00011844382099516766 4.625698317244634e-05 1.7261995304311323e-05 6.099554279768231e-06 2.0310180063507563e-06 6.360609112119245e-07 1.87315801496953e-07 5.191985819668213e-08 1.3564405419360899e-08 3.3461960841630915e-09 7.808036121322232e-10 1.7263860024440422e-10 3.624466728861919e-11 7.2499676094971465e-12 1.3922917323289304e-12 2.627315692554541e-13 5.2468671834938165e-14 1.3516053206201675e-14 5.741850725274039e-15 3.823415810195208e-15 3.2092179299265816e-15 3.0226401755338227e-15 3.0572557983640136e-15 3.2454433573343376e-15 3.55496778235948e-15 3.961948531782148e-15 4.438400380341559e-15 4.94558174087781e-15 5.433442637119577e-15 5.844290804796944e-15 6.1230476507776185e-15 6.226435511565932e-15 0.9998476751730451 0.2972112679995696 0.08880560648729717 0.02684762425306034 0.008263085482794526 0.0026101300344643845 0.0008528813218097298 0.0002891192113419409 0.00010102151519629132 3.583078595094963e-05 1.2647185951127774e-05 4.362749071974375e-06 1.4506438932119094e-06 4.6081720777409055e-07 1.3914895493728258e-07 3.9846646060317215e-08 1.0816663129057509e-08 2.7844741747620484e-09 6.804988027465622e-10 1.5810066768682172e-10 3.4965907077666824e-11 7.373902209646121e-12 1.4867808672523638e-12 2.884037538488526e-13 5.48567566600619e-14 1.0891162081257593e-14 2.701096444341833e-15 1.0922441369403373e-15 7.183645852607222e-16 6.122957629547375e-16 5.910306415918613e-16 6.142826793378783e-16 6.704619959535491e-16 7.546693947361764e-16 8.630727861399407e-16 9.89964500128673e-16 1.1260799440843036e-15 1.2583488198853336e-15 1.3708217418059295e-15 1.447735843830467e-15 1.4764421950178969e-15 0.9998432453271706 0.27662245955325526 0.07640070966610649 0.021157147655610588 0.005887841745045087 0.0016524865886536867 0.00047019650864781417 0.00013644121323370796 4.052301066360859e-05 1.2303208279271455e-05 3.786658017997186e-06 1.1664530233570216e-06 3.5463731256227756e-07 1.0514031568831105e-07 3.013104653608705e-08 8.299129221368335e-09 2.1902314708345507e-09 5.530167259361263e-10 1.3355328902708016e-10 3.0859212337405383e-11 6.82692311012848e-12 1.4475503170980842e-12 2.9473919064027583e-13 5.791054122408682e-14 1.1149965180573324e-14 2.2163288698570983e-15 5.339397509805308e-16 2.058759910930722e-16 1.3359760798827577e-16 1.1592483326957514e-16 1.151290442234035e-16 1.2346591505547258e-16 1.3910536685812038e-16 1.615229483299721e-16 1.9023934224619663e-16 2.2415686956490707e-16 2.610564545069809e-16 2.9743306891525844e-16 3.287676827263541e-16 3.5040983084624195e-16 3.5854543954733925e-16 0.9998397986667864 0.2605910994555377 0.06752804492366449 0.017462973669483114 0.004508715576989921 0.0011628353966061276 0.0003000032102861983 7.762216641034182e-05 2.020462337009744e-05 5.309087488568537e-06 1.409483468088716e-06 3.7726332479021325e-07 1.0124153762710325e-07 2.7027730015002163e-08 7.119346160563165e-09 1.8366690587712037e-09 4.614575209540653e-10 1.1245656089542031e-10 2.651683877521185e-11 6.0405402856339094e-12 1.3285113576184016e-12 2.820661406470399e-13 5.785513153880401e-14 1.1502496693830224e-14 2.243087448434114e-15 4.477106607475229e-16 1.0519378721144633e-16 3.8569636572347863e-17 2.459134351347873e-17 2.175879296404428e-17 2.2324099184925755e-17 2.4813532647543966e-17 2.8988092950153925e-17 3.487286905038317e-17 4.2472340777315446e-17 5.160237917974959e-17 6.173491293695911e-17 7.19167142238606e-17 8.083419613272355e-17 8.706686994780387e-17 8.943388474695583e-17 0.9998370997799679 0.24803103462940412 0.061029107136332555 0.01495157869516689 0.003647101519299736 0.0008852807859898382 0.0002137488086192944 5.133659014280753e-05 1.226891244198111e-05 2.922401076837926e-06 6.945683485589861e-07 1.6489052944223106e-07 3.911050698788621e-08 9.259016371056931e-09 2.182896651507292e-09 5.108263661883006e-10 1.182178533111881e-10 2.6955516347177128e-11 6.035991276570859e-12 1.323765011200587e-12 2.837092491753776e-13 5.93246571117992e-14 1.2094777018786238e-14 2.407022313697827e-15 4.71364880665685e-16 9.379482420519249e-17 2.1300094733638028e-17 7.284592494452895e-18 4.490241525845527e-18 4.044613490442286e-18 4.30323267440544e-18 4.981518826440527e-18 6.0643659774231455e-18 7.595123853692653e-18 9.609499698771002e-18 1.2090397410142412e-17 1.4916122017609765e-17 1.782447188334775e-17 2.0424721350704857e-17 2.227002821334007e-17 2.2977916072986428e-17 0.9998349829797107 0.23817519302355442 0.056193718592533304 0.013187157024854778 0.003078432311937971 0.0007143752605781587 0.00016465791968246622 3.766778587004756e-05 8.545173201693663e-06 1.9227891606621147e-06 4.29003328107334e-07 9.49222599586971e-08 2.0833300522048523e-08 4.5364624166955416e-09 9.80094590381428e-10 2.100532910848582e-10 4.463516808813801e-11 9.396336393891849e-12 1.9577361699799312e-12 4.0320135990223173e-13 8.19699774806033e-14 1.6428241335982584e-14 3.241727779454491e-15 6.29687221736105e-16 1.20862146306966e-16 2.337759191720039e-17 4.9490998676992225e-18 1.4763494053601776e-18 8.265890559538693e-19 7.451439952981325e-19 8.234547983953494e-19 9.977689787354525e-19 1.2727365519278334e-18 1.668479107645085e-18 2.204680567817336e-18 2.8868596199811097e-18 3.689296953529838e-18 4.5399886711205865e-18 5.31981880379719e-18 5.8834678320178586e-18 6.1025466279541934e-18 0.9998333289419387 0.23047131099420687 0.05257124529789548 0.011922849574381595 0.0026895838269147174 0.000603181456451894 0.00013438598670538197 2.9721620255780733e-05 6.51887364482183e-06 1.4178406883319111e-06 3.055613336855143e-07 6.522730646973336e-08 1.3788396346510175e-08 2.8859400454597397e-09 5.980146456991844e-10 1.226806262886491e-10 2.4913833524076178e-11 5.008373445541202e-12 9.965442608826234e-13 1.9620872344652636e-13 3.821335927442859e-14 7.357671320013998e-15 1.39963277242442e-15 2.629003870468124e-16 4.879797606674536e-17 9.013058148048978e-18 1.7203829654096953e-18 3.999225329417963e-19 1.6724452184989752e-19 1.379159234890089e-19 1.5633949883485717e-19 1.9902492968025907e-19 2.675856131080334e-19 3.694644072330042e-19 5.129513170991292e-19 7.030847237244737e-19 9.35717856003776e-19 1.1913200805567446e-18 1.4327915871310845e-18 1.6112863207445512e-18 1.6817555595294068e-18 0.9998320471950922 0.2244998695063595 0.04985760741769415 0.01100835721849541 0.002418220648796555 0.0005283886274604682 0.000114784401726447 2.4776262102120235e-05 5.309403931039247e-06 1.1296466019776534e-06 2.384602025806142e-07 4.992481300329012e-08 1.0363934303978307e-08 2.1328426681928647e-09 4.350767777760949e-10 8.796786253208025e-11 1.7627301893444172e-11 3.500660585736938e-12 6.88898676310872e-13 1.3432369766472655e-13 2.5943340386256e-14 4.961211377643453e-15 9.387815689476045e-16 1.756135759472641e-16 3.2451195450192075e-17 5.923937203926175e-18 1.0763640286918271e-18 2.04476681863286e-19 5.1620509558044933e-20 2.813758418218272e-20 2.975413791677649e-20 3.9478168776410285e-20 5.624253276318673e-20 8.235410524422443e-20 1.2097547968171918e-19 1.747569315527983e-19 2.4374886026029396e-19 3.22879939274549e-19 4.003741729121793e-19 4.592533131317622e-19 4.8295725836980325e-19 0.9998310664437339 0.2199298662490924 0.047836727180689945 0.010345985078783074 0.0022270888328069474 0.00047718068860355277 0.00010173984355401165 2.1578246354004486e-05 4.549627500439395e-06 9.538614173718062e-07 1.9874895414145937e-07 4.1148449030291427e-08 8.463971119424235e-09 1.7295536873697627e-09 3.510988532406743e-10 7.080655193533388e-11 1.4186840744409127e-11 2.8242165287526986e-12 5.585950783496415e-13 1.0976942730977056e-13 2.1427592745651924e-14 4.154009906032482e-15 7.993000567992132e-16 1.5253539525918055e-16 2.883889722732053e-17 5.3939056311738065e-18 9.972737949113183e-19 1.8332496525324265e-19 3.5262130035025495e-20 9.465750381911702e-21 6.215300624560926e-21 7.845362742037738e-21 1.1791873881674772e-20 1.8435726577340967e-20 2.888506327331075e-20 4.4327535877572176e-20 6.529234720679043e-20 9.0603528796774e-20 1.164932934596985e-19 1.3683162916119506e-19 1.4521866972473262e-19 0.999830328740851 0.2164919399024612 0.046347954475817535 0.009868770219639007 0.002092475733277444 0.000441920762550033 9.295831691569819e-05 1.9472958141493198e-05 4.060518599596548e-06 8.432052394643457e-07 1.7431009805110972e-07 3.587024017606513e-08 7.3482149760540284e-09 1.498638209424667e-09 3.0432801734232276e-10 6.154437642168046e-11 1.2396878431220872e-11 2.4878575553651428e-12 4.974899787120217e-13 9.914555170032008e-14 1.9692029363551524e-14 3.8978644392976225e-15 7.686626795971029e-16 1.5094280894744274e-16 2.9491757323032433e-17 5.725100979383679e-18 1.102424436085844e-18 2.102290978178291e-19 3.985217815928615e-20 7.88629212576631e-21 2.2379717865118974e-21 1.7030227491838922e-21 2.47899104393236e-21 4.133190929366064e-21 6.965792793077208e-21 1.1463223480612001e-20 1.799530501503693e-20 2.638099594579898e-20 3.5422668577860214e-20 4.282366192324971e-20 4.5967126119123467e-20 0.9998297861176266 0.21396294250331543 0.04527149685302631 0.009529772177128566 0.0019986093360648523 0.00041778078564913047 8.705954070346267e-05 1.808584785684976e-05 3.744478094718763e-06 7.731233492633299e-07 1.5915163419834144e-07 3.266893805423443e-08 6.6879419304643e-09 1.365792001665793e-09 2.783101523945934e-10 5.660514408333172e-11 1.1496294313799166e-11 2.3322102999553084e-12 4.727604122812142e-13 9.579100849947892e-14 1.9406330109017956e-14 3.931665207267228e-15 7.966129667198335e-16 1.613920976974309e-16 3.268045980381247e-17 6.6071773512132875e-18 1.3319835941399012e-18 2.672246156401946e-19 5.323103899335263e-20 1.0548960049779472e-20 2.177287654776511e-21 6.555629072216004e-22 5.6722427282969205e-22 9.310520700336974e-22 1.6908710466706605e-21 3.0152679225645062e-21 5.100991224899514e-21 7.98396145386839e-21 1.1298397977475532e-20 1.4152907954134314e-20 1.541161847540191e-20 0.9998293987419257 0.21215749956130878 0.04451449672738955 0.00929479100798959 0.0019344896058073944 0.00040156423989758946 8.316313252154356e-05 1.7186189223145864e-05 3.543536244171668e-06 7.295336742393581e-07 1.4995613783954088e-07 3.078245834790772e-08 6.312464833001575e-09 1.2936361715087303e-09 2.650557951789439e-10 5.431791042479821e-11 1.1140124837810425e-11 2.2876637824975733e-12 4.706533029120302e-13 9.70604797834799e-14 2.0075130096617028e-14 4.166081870460598e-15 8.678180848049999e-16 1.8147738690360917e-16 3.810062227489671e-17 8.026469925445106e-18 1.695406269816555e-18 3.5853442790228615e-19 7.574187413713901e-20 1.5938431769812823e-20 3.3422442032080433e-21 7.288664590079392e-22 2.3455554622291114e-22 2.2781092933873237e-22 4.138034449394536e-22 8.036382157105353e-22 1.4842094448407735e-21 2.513232683832788e-21 3.793146304181353e-21 4.968137156177061e-21 5.511730706966521e-21 0.9998291322908478 0.21091565142944102 0.043999504270767244 0.00913708864159685 0.0018921330407841584 0.0003910244230719902 8.067794537700826e-05 1.6624503583800865e-05 3.421159296568873e-06 7.037697891928087e-07 1.4472169517982956e-07 2.97608564467187e-08 6.122893053210729e-09 1.260914600098101e-09 2.6006116549180137e-10 5.37498394606449e-11 1.1140056575583123e-11 2.317028919737379e-12 4.839540022453788e-13 1.0159247344398569e-13 2.144920996835664e-14 4.558199857078744e-15 9.756671294347887e-16 2.1047077314829613e-16 4.577941549457061e-17 1.004010397684514e-17 2.2198175943350437e-18 4.944290448765467e-19 1.10777423459057e-19 2.4905151117494792e-20 5.599542056648971e-21 1.257698259497468e-21 2.936380628201772e-22 1.0192940595396459e-22 1.099612284071395e-22 2.1703810491302667e-22 4.414887932573922e-22 8.220053648308699e-22 1.344032394612137e-21 1.8638521327803364e-21 2.119