# vtk DataFile Version 3.0
vtk output
ASCII
DATASET RECTILINEAR_GRID
DIMENSIONS 41 41 1
X_COORDINATES 41 double
0 1 2 3 4 5 6 7 8 9 10 11 12 13 14 15 16 17 18 19 20 21 22 23 24 25 26 27 28 29 30 31 32 33 34 35 36 37 38 39 40 
Y_COORDINATES 41 double
0 1 2 3 4 5 6 7 8 9 10 11 12 13 14 15 16 17 18 19 20 21 22 23 24 25 26 27 28 29 30 31 32 33 34 35 36 37 38 39 40 
Z_COORDINATES 1 double
0
POINT_DATA 1681
FIELD FieldData 1
Concentracao 1 1681 double
1.0 1.0000000302810075 0.9999997551400968 0.9999995083866714 0.9999993572256255 0.9999992801323204 0.9999992428779361 0.9999992259361766 0.9999992194921145 0.9999992169492772 0.999999214526681 0.9999992000203134 0.999999200006423 0.9999992000029196 0.9999992000018669 0.9999992000014775 0.9999992000013446 0.9999992270319303 0.9999992382327788 0.999999283509488 0.9999992410396868 0.9999992256417642 0.999999213768163 0.9999992050482533 0.9999992000012778 0.9999992000012773 0.9999992000012757 0.9999992000012796 0.9999992032897731 0.9999992088776514 0.9999992183680246 0.9999992182397045 0.9999992183008144 0.9999992136338485 0.9999992109947792 0.9999992095842577 0.9999992092494026 0.9999992095420843 0.9999992100633116 0.9999992105107774 0.999999210678252 0.999999772689613 1.037851289530431 0.6939248760936738 0.38548284761340673 0.19653138902086098 0.10016469513246128 0.05359666292703879 0.03241947594623272 0.024364393413402616 0.021185820747261348 0.01815756564706256 2.460254042916233e-05 7.228686334454774e-06 2.8556506567018246e-06 1.5336573129427794e-06 1.0468538080659502e-06 8.823461882970819e-07 0.03378913986939083 0.04779021224246567 0.1043861481318208 0.051298849627318226 0.03205143731597535 0.017209422174697404 0.006309526986108748 7.972735842382071e-07 7.965541452590238e-07 7.960886631696385e-07 7.998051364184356e-07 0.0041114198450336375 0.011096273379291581 0.022959249074157577 0.022798849327902666 0.02287523657167378 0.017041524264469848 0.013742684968232671 0.011979531622395546 0.01156096237870644 0.011926814941561814 0.012578349562423345 0.013137682543492134 0.013347025705958327 0.9999993802865417 0.8310610007553445 0.41538750410790926 0.16856538518651665 0.06094958507625281 0.020679760790595754 0.006928322015481712 0.0025568721249837963 0.0012996471188578033 0.0010233449158615045 0.0007525970659383113 6.898116130942391e-06 1.391778980562619e-06 2.1691550901703092e-11 1.227024051491293e-12 1.5485444981354836e-12 2.0986184446466895e-12 2.22560662481151e-07 0.015953427704745463 0.013460354414677024 0.004618409961695395 0.0016940847221417464 0.0005596129784693837 6.519205486090681e-05 6.328546328604293e-13 6.198348952008571e-13 6.340693609120431e-13 6.396734956783212e-13 1.1245130176879694e-05 0.0002470878333032494 0.0007638926472023008 0.0014999683270667701 0.0009504980867623765 0.0005463654279701712 0.0003467769241068085 0.0002683360731564464 0.0002555341353863666 0.0002778372230762074 0.0003144079755666738 0.00034552611354866247 0.00035768461335523285 0.9999990119655225 0.5740162205186662 0.21825406968690428 0.06974161238744879 0.019503552483686196 0.005033046958138996 0.0012908029703411572 0.00036235108911539525 0.0001328682371650974 8.449653601470761e-05 7.469739069081316e-05 1.8075133417170414e-06 2.514917704390951e-07 1.978381722882711e-12 1.7284313650320405e-17 2.6696410561055606e-18 5.487322854949649e-18 6.862853935701462e-13 0.0028327605029129944 0.0020545181121135736 0.00041664196518765233 0.0001092264486635161 2.4033982185181448e-05 1.8316712522695804e-06 4.820546403500571e-19 4.958657807659941e-19 5.524687833724703e-19 9.714954721823608e-19 2.2114386922064472e-11 9.26278656032515e-10 0.00014405148001562877 0.00011541720527826893 5.57152236387879e-05 2.244112760979143e-05 1.1464588167757737e-05 8.055874154618147e-06 7.89444992653024e-06 9.472411824496844e-06 1.1773908899626049e-05 1.3839545260638133e-05 1.4630163469630954e-05 0.9999987526320042 0.3616820016724566 0.10194026202606982 0.025974324714422473 0.00557485961945695 0.0010485608105159805 0.0002075376813887671 5.3519749872524664e-05 1.6643731665435076e-05 1.0603181566869289e-05 9.718889883251355e-06 6.030182397464742e-07 6.953582473404485e-08 3.607799366613912e-13 2.91666429086676e-18 2.716892952253876e-23 1.1905092503995088e-23 1.5293823678381676e-18 0.000279640007216745 0.00018693859006153058 3.261139080113187e-05 7.083104469916006e-06 1.33739109551229e-06 7.492651271401035e-08 8.512668240832673e-21 4.86706272713972e-25 5.215837637519031e-25 1.597756407433201e-24 4.622380023536109e-17 2.0552949796117777e-15 1.5162120585282848e-05 1.0573557840720147e-05 3.2867786682992103e-06 9.87771811025044e-07 4.047542172266744e-07 2.7006460921443615e-07 2.965664387504388e-07 4.157961568216433e-07 6.023562618959596e-07 7.5971273332002e-07 8.254755507644404e-07 0.9999985975514583 0.2177904536208458 0.04346769357191755 0.008752031528045925 0.001297166251256722 4.186918312011079e-09 9.929044183546507e-10 3.004258372247027e-10 1.0116989139478941e-10 1.1155268976356683e-10 4.015518192729205e-06 1.4778666029677362e-07 1.6059917762856685e-08 1.3480120402240486e-18 8.585460866096484e-24 6.768138434200839e-29 2.1560542433020366e-29 1.995809201244277e-24 8.47466929332276e-06 7.13682960787555e-06 1.687538077979682e-06 4.524540318377695e-07 9.348078656481947e-08 5.146729788649435e-09 5.439357299809795e-22 6.897196639983258e-31 8.998444685964095e-31 3.0338755887514e-30 9.424636321816209e-23 4.073829951110485e-21 1.1469294994839253e-06 7.257145951833194e-07 1.7470779122465181e-07 3.858881474616666e-08 1.2386566177092005e-08 8.408267602681798e-09 1.1752222972791892e-08 2.3578832625804305e-08 3.927215974203894e-08 5.546561742512948e-08 6.07475046830313e-08 0.9999985095728575 0.12698715897153473 0.01703958179009875 0.0026604495722976494 0.0003120478516748269 2.1741548612419484e-10 5.468124194647548e-15 1.5738083816260767e-15 6.131258035662136e-16 6.733720530508358e-16 1.2125217268350124e-06 4.298535934640346e-08 4.310597608508153e-09 5.3070982626916416e-24 4.048709303379294e-29 1.7805963591277852e-34 2.977331932340921e-35 1.596644183994344e-30 6.330737043992408e-12 5.498298400029805e-12 5.728193938992947e-08 3.248492242572735e-08 8.12974896031136e-09 5.159550080819677e-10 5.802229987532552e-23 1.4538834407254514e-36 1.9998802899735452e-36 7.168903986255625e-36 2.0640268815042496e-28 7.716383474591489e-27 7.194923469211087e-08 4.128787402410123e-08 8.046214493719522e-09 9.251249398758509e-10 2.2986361091200307e-10 1.5358809498599118e-10 4.3972547592241014e-10 1.3170674943418858e-09 3.839827471606122e-09 5.057851177113601e-09 5.537594232270994e-09 0.9999984577155259 0.06879103744098226 0.006027510758574558 0.0007481048567034694 7.741231515310835e-05 1.8186247480571543e-11 1.1840400681353798e-16 8.886081648324072e-21 3.2905081171434912e-21 3.430271693990096e-21 3.0404838898618283e-07 1.0369807934470867e-08 1.3491284100793343e-09 6.754253593220469e-29 2.0363289181245194e-34 5.560433192100018e-40 3.7876959955819143e-41 1.2773139997582278e-36 3.823135841035188e-18 4.238052267202253e-18 1.6563507041054303e-09 2.2816953859026403e-09 1.0643138094883977e-09 6.465610466819512e-11 8.37545676292144e-24 3.291552946957767e-42 6.969952918994661e-42 2.0213368515392178e-41 5.187088770576639e-34 1.5560815086298226e-32 3.930963310007743e-09 2.482268552110102e-09 1.7229952112745302e-14 2.303720043130789e-15 6.673375639167204e-16 4.718208009079621e-16 1.8457824332539145e-15 2.373452454591705e-10 4.36819348775477e-10 5.592351597141995e-10 5.952584548782048e-10 0.9999984245226005 0.029373335799353688 0.001751994030512011 0.00019538275376061148 1.978204859752466e-05 5.673633243018638e-13 4.1546699838195784e-18 2.730895664726163e-23 1.7529385674047283e-26 1.5191909008051498e-26 6.091872186837693e-08 2.1524577951332836e-09 2.6521308841767216e-10 1.2487596687111358e-29 1.4233266765433672e-35 3.4002028140273356e-35 2.221586143625369e-44 1.0218487161229989e-42 3.0585030380902155e-24 3.390435933619589e-24 7.435318985341727e-15 5.814760000362868e-10 1.4901494666380663e-10 8.321848241064862e-12 1.6409372412830943e-24 2.6016868470242605e-47 2.6386727420237823e-47 6.811472677805988e-47 1.5145206015322178e-39 3.6003880996038214e-38 1.2555847816752402e-10 1.6727397781705535e-10 2.5913788272238988e-20 5.442244945055289e-21 1.824601225329936e-21 1.422911741834898e-21 5.367515413167034e-21 3.3510211690755615e-11 5.89520883019827e-11 6.731819874361539e-11 7.023394899117596e-11 0.9999984072064165 0.008380008974813107 0.00044792459507918335 4.8121982648566096e-05 5.067211443360125e-06 1.7098040054894243e-17 1.4089409919547576e-22 5.06641092212689e-27 1.0281297169127447e-27 1.4752825019509703e-28 8.383229113064697e-09 3.096516517615436e-10 4.068963766489884e-11 1.6420599705626608e-30 3.937690768593543e-33 3.5927222053391054e-34 3.284555197893331e-39 3.893821274993537e-44 3.245310363879362e-30 6.528537831018025e-30 1.8201601757347596e-20 9.384410663228902e-11 2.1966723716077042e-11 1.0040122234500868e-12 1.7471858876027532e-25 2.653656943206786e-48 8.297030410648306e-49 1.9745987850114158e-48 7.001623011325283e-41 1.9867616605558315e-39 9.085881083458265e-12 1.4600574754011633e-11 4.779215505897243e-26 1.3181836697521794e-26 5.077555081842223e-27 4.112484340371503e-27 1.4752778462914556e-26 4.436797603761114e-12 7.661067697998003e-12 8.487128929667967e-12 8.696513525429807e-12 0.999998402269386 0.0024877173268985442 0.0001229413313175915 7.611056989154704e-06 1.3855025338176766e-06 3.4393287408022624e-20 1.3726475798550962e-20 5.252194054766198e-21 1.2850413669461603e-21 1.843289761220791e-22 1.7662887719569235e-10 2.919363755037595e-11 4.639657863218563e-12 3.814288383661614e-26 5.456407955845355e-27 4.627937802398593e-28 4.105701845780403e-33 2.768946621241768e-38 6.008546559147473e-36 1.3700096928688005e-35 4.19421847596018e-26 1.122530880761253e-11 2.3790190173475025e-12 8.84678804397115e-14 1.0610375235743192e-26 1.0487417107170918e-49 2.4702859800732585e-50 8.935447598469403e-50 4.550078203344855e-42 2.4825022345532745e-40 1.0259395798606004e-12 1.7675299880490581e-12 1.0910246275051351e-31 3.6097541157088235e-32 1.5641855485382718e-32 1.2492856984128494e-32 4.1150072321499267e-32 5.803850581382177e-13 9.906776385626656e-13 1.0762694724027491e-12 1.0908412593149275e-12 0.9999984007602246 0.0009359604900849119 1.7849461927483931e-09 8.924613734174304e-11 1.6851648871036947e-11 3.9954773182592943e-25 1.5856354471522409e-25 1.9410148210189067e-21 1.7903068988170418e-22 5.590020613743764e-24 3.677767808696831e-12 1.1545047611708033e-12 4.181055808099625e-13 4.572924294904821e-27 1.031027930029008e-27 7.908304066439565e-29 1.2069897147255404e-38 7.250074291855703e-44 1.5685257298123611e-41 3.341552418134334e-41 9.196635329485718e-32 1.0874727132516006e-12 2.048993252104502e-13 2.668639444318577e-18 3.2182388263707904e-31 3.1964647489241777e-54 7.563283990711448e-55 2.746312566217748e-54 1.2255543328865014e-42 3.6371284030415567e-41 1.4818640252220113e-13 2.674145974083473e-13 2.5751591104810564e-37 1.377331423183664e-37 5.494960132270084e-38 4.3095176315319996e-38 1.2502166986941881e-37 7.753134126476008e-14 1.2993188936151258e-13 1.3433881022568153e-13 1.3544357697904779e-13 0.9999984002723239 0.0003409131452137511 1.2754327847610811e-12 8.796486399165626e-16 1.6674528530655979e-16 3.6615414915755364e-29 1.2089247224022533e-30 5.725808928169131e-22 1.6136593847002965e-27 3.521128988119261e-29 2.3119755716861393e-17 7.059747796436826e-18 3.56690904747962e-18 1.5106308857197433e-27 2.201657983494033e-28 1.6919666822459244e-29 3.7233074077097765e-44 2.9842609087996485e-49 4.893153687530853e-47 9.383713642314842e-47 2.2975878262356775e-37 8.848873449164338e-14 1.6960490362548943e-14 7.909072848900305e-23 9.538569527533723e-36 9.478507908205606e-59 2.2445630130252693e-59 8.160144160814739e-59 2.1763137967379804e-43 6.103263609783604e-42 2.057225421543425e-14 5.1851647982512154e-14 1.8719712390270152e-42 5.902937253281311e-43 2.2732538643317506e-43 1.6452800995917865e-43 5.163119707220469e-43 1.1539845200234454e-14 1.5471265325702337e-14 1.6390633245875597e-14 1.6477168993588522e-14 0.9999984001005242 0.00012544998219102992 2.9756941224237357e-12 6.7181640325119015e-18 1.9228627439928314e-21 2.3520044158391275e-23 1.8263692228091314e-29 1.648702585664422e-22 6.936769753341366e-33 2.0938686377391047e-34 1.3317816712993665e-22 4.1721417585190206e-23 1.9215533530306822e-23 3.8204840731120134e-28 4.974836298721875e-29 4.41899422763287e-30 3.630931075668083e-49 1.1855218324910503e-54 1.675604470339759e-52 3.196267096722282e-52 5.234671296369049e-43 4.0310606067126844e-15 1.7098241967017896e-15 2.3535099798728316e-27 2.8389730638690157e-40 2.8210968698599637e-63 6.679615397874233e-64 2.4280583047998969e-63 2.9228565393463957e-44 8.00452410231232e-43 2.737472889336168e-15 6.448225737720477e-15 2.2617329011051928e-43 3.261988082498489e-44 1.0083243179127662e-44 6.974992952223399e-45 2.976259286725042e-44 8.813778715430004e-16 1.7822387993288105e-15 1.9175235771397227e-15 1.954244064074903e-15 0.9999984000381303 4.684304784979501e-05 5.1846173196681705e-12 5.1026096994565115e-15 5.851189909108576e-16 2.9400225423210246e-17 2.2829375945774068e-23 4.7519920197936104e-23 7.699488716869079e-33 1.025019782013883e-33 7.19930192398501e-28 2.194616838225537e-28 9.209569465461e-29 8.686635599803891e-29 1.090128990251851e-29 2.381381250925985e-35 6.56777459102112e-52 2.3534996972946458e-57 6.522844397512069e-58 1.9578918132289322e-57 1.4530516171111146e-43 5.078026107354008e-16 2.218880333743979e-16 6.880515114158701e-32 8.32532159865137e-45 8.297159440345248e-68 1.9698925012387795e-68 7.178093616839522e-68 2.815302973984e-45 7.924271162325913e-44 2.821832803221933e-16 6.829474501342535e-16 2.1348614702413157e-44 2.8364199014768424e-45 7.687678080875258e-46 5.336328087669215e-46 2.4930556589819998e-45 8.690910134897361e-17 1.929049425022115e-16 2.2359921357639565e-16 2.309562491284315e-16 0.9999984401181932 0.049358691979685156 6.25832725962449e-07 6.35913561378243e-09 7.314053227405019e-10 3.67505964124827e-11 2.8536930709529073e-17 2.2893323394527996e-23 9.624373284196676e-27 1.2812810262156768e-27 1.5533784697113628e-28 1.6278290615409331e-29 7.791956574562522e-31 1.9106306504534523e-29 2.3710792275102444e-30 2.8991470659065623e-40 8.18140674998885e-46 2.935316898296829e-51 1.0240722205349394e-56 4.53408548431837e-62 2.608732450005454e-44 8.740859857554328e-17 3.514482505142947e-17 1.930754425943109e-36 2.3446756639095423e-49 6.176669266286891e-72 1.0169761883438229e-72 2.0461294844906467e-72 1.3421719175341688e-46 4.5310214234200647e-45 2.206546539594712e-17 6.109836837992115e-17 2.0664106277600226e-45 2.8281832429889394e-46 7.656006118798358e-47 5.35756817953992e-47 2.5892805745452562e-46 9.490216950337958e-18 2.227576058013262e-17 2.6657395609434405e-17 2.788006599318119e-17 0.9999984720959124 0.08648232285889455 0.03990751522035523 0.007946276634647524 0.0009142652459744414 4.5938657728352095e-05 3.567143469442855e-11 1.617098615034576e-17 1.2030536247162881e-20 1.6016105352138299e-21 1.941687799455653e-22 2.0346599746154312e-23 9.73478659435522e-25 8.050329395465913e-28 2.1176224735874456e-29 2.6186488752012027e-34 1.0226809783960172e-39 3.669164610218221e-45 1.2800961162528958e-50 4.7765465137441885e-56 3.571401121563498e-45 1.1473668548689506e-17 6.815946044879006e-18 5.266950615341215e-41 6.412507632493074e-54 4.788637483257404e-66 5.722409857414298e-67 2.6024313062961147e-72 1.018426253012771e-52 1.4378200572084158e-46 1.1868798536013063e-18 4.748529736259472e-18 2.1657623434883517e-46 3.2245849383624536e-47 9.309064822877862e-48 6.407459027388092e-48 3.098532786857306e-47 1.1500630546753803e-18 2.746835187465944e-18 3.3364506515911144e-18 3.507519040337188e-18 0.9999985556057477 0.1961616892330826 0.035532247780813264 0.006046916997990126 0.0006239098812909753 3.1406339006939014e-05 2.5135474735533186e-11 6.550756631621497e-14 1.492607605148418e-14 2.0020254170693067e-15 2.427124332349911e-16 2.5433402938262494e-17 1.2168549507591123e-18 1.2832926072084846e-21 3.305353221505391e-23 3.2733253243812973e-28 1.2783570942026395e-33 4.5864766935084855e-39 1.60012701782767e-44 5.97070623437697e-50 3.2917869715319695e-46 1.1531034672736043e-18 6.819457442235435e-19 5.466771177229989e-42 2.5473791350806113e-55 5.985965569530439e-60 7.153214064979031e-61 3.253060799764882e-66 2.489044170434269e-55 9.475913139874552e-49 3.3120706585103965e-20 3.154853321142684e-19 2.0788141247158641e-47 5.0880349027041603e-48 1.3131024567424055e-48 8.769061671585743e-49 4.1238935135614915e-48 1.5164276497916657e-19 3.6201705172311674e-19 4.408210768902936e-19 4.64046465607767e-19 0.9999985076025826 0.1340317160663388 0.016077198485312007 0.001886608085808247 0.00015291443194354992 7.07192896398422e-06 9.135196323681774e-08 2.401232833472721e-09 2.0179744227347072e-10 2.6815450662608233e-11 3.2891113163630856e-12 3.887720369224957e-13 4.77878697994666e-14 2.067917358989997e-15 5.2191935839261475e-17 4.091655891060422e-22 1.5979455860923489e-27 5.7330889887262796e-33 2.0001530230494399e-38 7.463344060301107e-44 1.0515854524698636e-47 4.735984644649324e-20 4.144353500511558e-20 2.9990923568895154e-43 5.979388170756941e-53 7.69693406765017e-54 9.115586256320979e-55 3.023864319226341e-60 6.191237942084252e-61 3.1935589286294666e-54 1.3065394341049476e-25 2.016504643516264e-24 5.842541937052373e-48 8.798500831391832e-49 2.1335964189453558e-49 1.311683355150294e-49 5.9451252947685766e-49 2.1396883099222143e-20 5.0595610476902764e-20 6.13866766198641e-20 6.456591927847478e-20 0.9999984686123365 0.0852477323537722 0.006407929620596377 0.0005329357095609058 3.4840336345549826e-05 1.4498154490843561e-06 2.151105273500001e-08 1.776862201803364e-14 7.046887550104687e-16 9.903974048194904e-17 1.1640772259266512e-17 1.9922116233525114e-18 1.1237728312619705e-14 3.320398232434725e-16 1.2012786065639724e-17 3.609215295540025e-27 7.558241023655984e-33 2.286230317226238e-38 6.138214119501584e-44 8.552352510358233e-49 1.0989726439641441e-49 5.74310705981609e-22 1.0161338301483798e-21 8.963112066100911e-45 3.341872046622029e-53 6.382445635641725e-54 5.681650042834723e-55 2.0148427336658682e-60 7.944777993373001e-66 1.0486327276128377e-59 5.091821565304147e-31 7.972818158374111e-30 1.2153746633006104e-48 1.7299593579280933e-49 3.595623962890761e-50 2.0814561728096321e-50 9.042121734871943e-50 3.180982312034195e-21 7.428413435222508e-21 8.960417511723418e-21 9.408559536781747e-21 0.9999984421826221 0.052491177310059874 0.0025502482974881467 0.00015075735554424512 7.959605354686435e-06 2.9347015687692604e-07 4.5073778451147275e-09 3.60535683464775e-15 8.708389636701617e-21 3.321125651392937e-22 4.150150012867116e-23 6.769506677779428e-24 1.9514290256400155e-15 5.641963406520511e-17 1.6665391574507139e-18 4.478699808558118e-28 2.48139734405773e-34 4.043859290860192e-40 1.5149212448324032e-45 1.152632755674161e-49 5.610332220336097e-55 1.3717137751572643e-27 3.5977078228227676e-27 3.652808882526074e-50 2.1032925083765333e-58 1.7441771135415858e-54 9.590656174626825e-56 5.63577693138238e-66 2.432840521020714e-71 3.5500263777905147e-65 1.825104519884602e-36 2.8086522395975964e-35 2.2217860510029623e-49 3.0855860686329766e-50 6.124975026397285e-51 3.3751631378054497e-51 1.4238713686521995e-50 4.91544915062698e-22 1.1355938975102914e-21 1.3623017310615044e-21 1.4280531886231682e-21 0.9999984282553164 0.03523959372579494 0.0011578615581592593 4.932316031443749e-05 2.0960587032064833e-06 6.882450661897832e-08 1.0798991056241388e-09 1.1912568031034977e-15 2.7528468240693474e-21 7.353652167528277e-27 1.361136291321004e-28 2.0661387090694555e-29 2.8197236839485097e-16 7.47496211461226e-18 1.833763259862831e-19 2.4180290250443507e-29 8.342723183872266e-36 6.280349721904034e-42 5.839725229489588e-47 1.6867856697021755e-50 4.789885446720045e-56 3.6674012101862505e-33 1.2487590518555184e-32 1.4668879590920437e-55 1.2445867750333358e-63 3.7902240253121954e-55 2.01928852575827e-56 1.8581343385654568e-71 8.367537358136124e-77 1.3020728574490212e-70 6.55063639073679e-42 9.331989459252533e-41 3.7583654308296244e-50 5.193554551705086e-51 1.0164727539164368e-51 5.510581921589707e-52 2.29002248914034e-51 7.8223782538782e-23 1.7949163466076453e-22 2.145403346769793e-22 2.246355603729516e-22 0.9999984213242651 0.026632472455571505 0.0006653417478768709 2.2230208816834642e-05 8.075368979292844e-07 2.5744543736695656e-08 4.397059667546564e-10 8.813574264734793e-16 2.4404521937909582e-21 4.216730202882689e-24 3.1025027761826196e-25 1.1319553338807981e-26 3.624838962047109e-17 9.365074364628909e-19 5.993080704842442e-25 9.356277821382857e-35 3.692470000213592e-41 2.9778341896847427e-47 1.933840386555646e-51 4.942795009904119e-51 2.631053260962726e-54 1.3290603188129586e-38 4.557700506621186e-38 4.035782092982385e-57 4.9594447188182396e-58 7.457556832765587e-56 4.151771596910789e-57 1.7376529009025686e-69 6.846373825687308e-75 5.160858434217385e-76 2.5280098174181433e-47 3.1633445331272396e-46 5.897509827001351e-51 8.264730986807602e-52 1.651545911906146e-52 9.012169131028074e-53 3.743279883315366e-52 1.2754944730735348e-23 2.9203743254475336e-23 3.485991813510637e-23 3.648449860477399e-23 0.999998418210671 0.02275675944847996 0.0004964433645983878 1.5151881192004516e-05 5.612551981886565e-07 2.186910578517026e-08 8.247728194078582e-10 4.74214704061084e-15 5.139725590600837e-17 5.263849069652092e-18 3.8781440190623793e-19 1.4149493804628066e-20 4.483897923745915e-18 1.1419220421493052e-19 1.2076674282151118e-30 9.988135012223458e-40 1.9849935205013845e-43 2.462212368262901e-44 1.9047375093004883e-45 1.9490545259389015e-47 3.288830117855094e-48 5.389880725266537e-44 1.8286322139718846e-43 5.044066817639183e-51 6.19933312209885e-52 6.611044286858274e-53 1.3097275431042724e-57 2.172074517447575e-63 8.558011828836157e-69 3.0931779624921424e-74 1.0428494975204294e-52 1.3426432461406148e-51 7.661825736604856e-52 1.2651152875672302e-52 2.6659091680396343e-53 1.4856873722691581e-53 6.222535813816115e-53 2.1281325059191402e-24 4.8810869006217526e-24 5.83177359772097e-24 6.105070194346957e-24 0.9999984167680187 0.020957113559425058 0.00043478619821034776 1.3491583242525052e-05 5.541055857668324e-07 3.09909057239551e-08 1.7246707376244314e-09 4.535159629401181e-10 6.423162182814135e-11 6.5798407439440435e-12 4.847700799031303e-13 1.7686934005980024e-14 5.642014643533227e-19 1.3343953583791975e-20 2.3115893216642104e-28 8.513949026767441e-34 2.4793714002801065e-37 3.077782406202783e-38 2.3809352169194693e-39 3.347566254285089e-41 4.1110604923394284e-42 4.459797417310562e-43 5.205615905150586e-44 6.305111756194437e-45 7.749198036250305e-46 9.8347293114428e-47 6.4613713500149774e-52 2.7151179969528623e-57 1.0697572109708914e-62 3.866491958601505e-68 2.9851802591042114e-54 8.166210057761676e-53 1.050492546662008e-52 1.9810774470717611e-53 4.3881852268968784e-54 2.4918148958576496e-54 1.0555211842512747e-53 3.635420893910939e-25 8.378435663025669e-25 1.0038293662277367e-24 1.0518762101746037e-24 0.9999984154061522 0.019255006835709163 0.0003820448583168092 1.1905999145033775e-05 5.385582592668692e-07 3.296487385045974e-08 3.2713513614883e-09 4.0604856480067773e-10 5.194970823804453e-11 5.0708035940120874e-12 3.8060627440204116e-13 1.8286451603636373e-14 6.423317252321891e-16 7.419683926401141e-18 3.93627389929984e-23 1.8370956353246862e-28 3.0686445941902095e-31 3.847246640217502e-32 2.9761847822930767e-33 5.761334678965759e-35 5.1388500721068785e-36 5.574776506933059e-37 6.506954732475655e-38 7.881426104086801e-39 9.686534993288633e-40 1.3892876848328077e-40 9.022993026362031e-46 3.7344056020228925e-51 1.3564026518760982e-56 4.850472583394076e-62 1.863396116810875e-59 2.2669651268762437e-53 1.809663680537041e-53 3.391835348077259e-54 7.459352225309647e-55 4.280986638050532e-55 1.8316126584896917e-54 6.367415524800151e-26 1.478064134082157e-25 1.7790471443075582e-25 1.8671883486147987e-25 0.9999984129766594 0.01621581886278949 0.0002817232068441041 8.266086514491848e-06 3.644133116685941e-07 2.323614205474545e-08 1.9663869492566845e-09 1.99353960700952e-10 1.980336619899734e-11 1.712329612120194e-12 1.3058560723005039e-13 9.23314599338181e-15 6.552121930657666e-16 4.638055333618538e-17 4.599412932924115e-22 1.7696772060076364e-24 3.8269854296527255e-25 4.8090825901137373e-26 3.720248295517921e-27 9.669690180461468e-29 6.423626751198943e-30 6.9685134437390075e-31 8.133738059780457e-32 9.851829733420213e-33 1.2108219283496049e-33 1.8494155183323109e-34 1.1278772341883353e-39 4.668026588540872e-45 1.6955115390480853e-50 6.063120160678017e-56 2.235122231824548e-61 4.7376468285665357e-54 3.614236932692311e-54 6.03048995527073e-55 1.3073125016467035e-55 7.516751006362067e-56 3.2527873870485788e-55 1.1446292677500609e-26 2.6842067645845307e-26 3.252217032508455e-26 3.4213211395108396e-26 0.9999984080879758 0.010096891396135454 0.00012984690144167497 3.0237896108000433e-06 1.1958425452675644e-07 6.9896302744495536e-09 5.415559244141696e-10 4.851750443189209e-11 4.304315222786463e-12 3.1921228498199135e-13 1.8766244338629836e-14 1.3581248344767115e-15 1.4668765772223454e-16 2.27458518073501e-17 6.486728306590739e-18 2.2093639135899728e-18 4.78375876183503e-19 6.011386001895818e-20 4.650331775691945e-21 1.406738673714441e-22 9.112825834953555e-24 8.9840128841248e-25 1.0315859220950621e-25 1.2521904480533082e-26 1.5740042849119161e-27 2.4967653685380473e-28 1.4098500548586283e-33 5.835056506940757e-39 2.1193990767748105e-44 7.578937820967093e-50 2.7929782889291517e-55 8.749758624323508e-55 6.57420515966971e-55 1.0757716894101611e-55 2.307331878888122e-56 1.3411069287894272e-56 5.902796995880606e-56 2.1141171418702576e-27 5.0291910381617375e-27 6.1504335860572606e-27 6.490916205480188e-27 0.9999984009656275 0.0011826533444901496 1.4307552214903425e-05 2.856997717184872e-07 9.843396756518818e-09 4.941184273994824e-10 3.763425416188082e-11 3.674720093158258e-12 3.967248679554964e-13 2.7870548092933186e-14 4.596213735187122e-20 5.0592637392281845e-21 7.385093726640244e-22 1.2451001161809857e-22 5.997568740718328e-23 6.857492513324299e-19 4.7734342147492256e-20 3.793658434849132e-21 2.0996184813592202e-22 3.8436669115292366e-24 9.230911322511885e-30 2.2874298344423557e-30 3.577731024547745e-31 5.364106171345679e-32 1.1730957119904217e-32 8.17590927543975e-29 5.932337352897521e-39 2.5144297032581326e-44 9.096838394447172e-50 3.013977595484295e-55 9.708909611486923e-61 1.4729719733111743e-55 1.1118179168002452e-55 1.8431763087642443e-56 4.041904347922075e-57 2.4142491165699567e-57 1.0936902045678284e-56 4.019773027438185e-28 9.756821977443628e-28 1.2084234932686056e-27 1.2808468141517988e-27 0.9999984001188245 0.00014444095280517945 1.5711250752849953e-06 2.7513541930351042e-08 4.933172786688e-10 2.02133618111795e-11 1.4589767125974302e-12 2.390110898837542e-13 3.524327751370268e-14 4.046037701212434e-15 1.0324450622841611e-25 1.7471587083646907e-26 3.0602200093385733e-27 5.96250211315322e-28 2.5123690112844994e-28 1.173140325787944e-19 7.02881394679581e-21 3.441402443786768e-22 1.5193624347958968e-23 2.3922923725403983e-25 1.2904970281733293e-35 5.361581429663011e-36 1.1511661095363016e-36 2.2339245655830147e-37 5.602204646545848e-38 2.5369643797451366e-29 2.797556218143222e-44 1.4326624471756377e-49 4.3500838742465806e-55 1.2850074888947242e-60 9.383624952455631e-65 2.204518946535001e-56 1.7116391720833364e-56 3.003105868087136e-57 6.966788712718722e-58 4.376257161299253e-58 2.0719275872848817e-57 7.897960513582823e-29 1.9699323300283065e-28 2.481383052340078e-28 2.6451195737798465e-28 0.9999984000170787 1.9106806177828043e-05 2.2433439292197244e-07 1.2471921281324374e-13 1.9073530266450692e-15 8.56799663212691e-17 6.392911032494014e-18 1.4798985191925383e-18 9.226193403059617e-15 7.207841629070899e-16 3.0907158135502615e-31 5.893141731288066e-32 1.1337452017726894e-32 2.1907327246505364e-33 8.237019444914658e-34 1.4044337777841915e-20 7.8612168658406095e-22 3.415278187002953e-23 1.3587850009157413e-24 2.0807056842977533e-26 2.2506727117157444e-41 1.314569706582297e-41 3.476047907443304e-42 7.863827282836519e-43 2.077288760068401e-43 7.369846464234787e-30 3.049710876729628e-49 9.085642108021069e-55 4.523766191538074e-57 7.216262463037129e-58 1.1305035261404206e-58 2.504341288955673e-57 2.3178155378547533e-57 4.647536659839389e-58 1.183342708552619e-58 8.009294365332557e-59 4.030395976161488e-58 1.6127810612651266e-29 4.168241554886948e-29 5.366045183279777e-29 5.761964039310538e-29 0.9999984000044152 3.868701376098797e-06 3.013796907752304e-08 1.367383699508192e-18 6.586317008511305e-21 3.183853200097132e-22 2.6228706909339898e-23 5.969585800183899e-24 2.003788508549808e-15 1.5296065411848273e-16 4.488373102437707e-36 6.801348106832496e-37 1.0399681388016584e-37 1.5171287398254535e-38 3.1007667571130475e-39 1.2292574526301553e-21 6.971022184831345e-23 3.1348216433500338e-24 1.3555220095560726e-25 2.306151104293528e-27 6.271705184655293e-45 1.2769434812424156e-45 2.500943247974814e-46 4.722705135961552e-47 8.01933663404616e-44 1.1752023702724157e-30 2.7648850207500982e-45 3.4891145398518726e-50 5.651852123365311e-51 9.020376259064271e-52 1.4131361709081956e-52 2.1949151027775314e-53 3.395368976328912e-54 5.5212375099694695e-55 9.24986922622776e-56 1.5664152692164388e-56 2.669290545252791e-57 3.4485211542845244e-30 9.322317310822375e-30 1.2335518291453894e-29 1.3368344014859544e-29 0.9999984000028028 1.9025295546021052e-06 4.072632677476437e-09 3.996472828171447e-17 1.0090528034057575e-22 1.7174998231288342e-24 1.4915556478601837e-25 1.1561098542251481e-26 3.996548711749656e-16 3.178840494787734e-17 4.309221138193092e-30 5.933195754982548e-31 7.970931420026152e-32 1.02171369079149e-32 1.2607589032743037e-33 6.127111925159557e-23 4.15333996523348e-24 2.5561253903581523e-25 1.4145432237424616e-26 3.1020357500340845e-28 7.778416263393864e-39 1.5532378079568102e-39 2.997125188110675e-40 5.613739460778161e-41 1.0024131897957102e-37 4.2956559640487555e-32 4.003871873542558e-39 4.53292927978973e-44 7.2515352