# vtk DataFile Version 3.0
vtk output
ASCII
DATASET RECTILINEAR_GRID
DIMENSIONS 41 41 1
X_COORDINATES 41 double
0 1 2 3 4 5 6 7 8 9 10 11 12 13 14 15 16 17 18 19 20 21 22 23 24 25 26 27 28 29 30 31 32 33 34 35 36 37 38 39 40 
Y_COORDINATES 41 double
0 1 2 3 4 5 6 7 8 9 10 11 12 13 14 15 16 17 18 19 20 21 22 23 24 25 26 27 28 29 30 31 32 33 34 35 36 37 38 39 40 
Z_COORDINATES 1 double
0
POINT_DATA 1681
FIELD FieldData 1
Concentracao 1 1681 double
0.0 1.1514265966323443e-57 1.5983935478159792e-51 1.5162874820964714e-45 7.699696991851184e-40 1.7064304401834334e-34 9.055549516160419e-34 2.903151080774703e-33 7.067773827773112e-33 1.466065540489503e-32 1.3303928553991648e-28 6.764850840364403e-23 2.9687638871967684e-17 8.312105141775245e-12 8.230058305427644e-12 8.226102418046141e-12 8.226510620499817e-12 7.681341351306117e-12 7.010253685324571e-12 5.107426472732952e-12 4.202366278400018e-12 3.6225879885525844e-12 3.3082881114032756e-12 3.1911947049670364e-12 3.2221855911899557e-12 3.325069892522439e-12 3.4302432209707022e-12 3.4356115333385794e-12 3.360822059426512e-12 3.1625607768860363e-12 2.7455929198903114e-12 2.349786709965396e-12 1.9381558618990027e-12 1.6261959463490584e-12 1.3714541536926146e-12 1.148390250786485e-12 9.337438108335538e-13 7.308664574976377e-13 1.0488344843424331e-12 1.1806155216778263e-11 1.0100050620107129e-10 1.3337447964785046e-57 1.439284397217027e-51 1.997993533163522e-45 1.8953608689080714e-39 9.624628939510972e-34 2.1330397225583197e-28 1.131944595075004e-27 3.628941644534582e-27 8.834724073931591e-27 1.8325833778423418e-26 1.6629923996418114e-22 8.456070223302258e-17 3.7109578277598476e-11 1.0390139677032765e-05 1.0287581111842861e-05 1.0282636248660095e-05 1.028314648615231e-05 9.601684370473998e-06 8.762824112045158e-06 6.384288165029474e-06 5.252962050366301e-06 4.528238578115014e-06 4.135363428259021e-06 3.988996550924765e-06 4.027735211173036e-06 4.156340690722941e-06 4.287807450030037e-06 4.294517851569581e-06 4.201030934055783e-06 3.9532041321322065e-06 3.431993895455809e-06 2.9372357353276444e-06 2.4226967651429653e-06 2.0327465591322693e-06 1.7143190633379613e-06 1.435488961873357e-06 1.1671806972857531e-06 9.135838027385047e-07 1.3110441542625257e-06 1.4757705823441575e-05 0.0001262507337518453 2.5074076594437036e-51 2.2242040830036377e-45 1.8805345557838058e-39 1.4306562760595149e-33 7.039805866913702e-28 1.6543298633112445e-22 6.290839288923493e-22 1.5658676516903608e-21 3.0812705711601833e-21 5.1972456727595106e-21 8.531120999644865e-21 4.939746990443203e-16 2.247112354804292e-10 8.507920988025512e-05 4.556487303073969e-06 8.041886199081925e-06 1.2933646449378285e-05 4.032968281402271e-05 8.763940659703686e-06 7.932398861648243e-06 7.034477582898292e-06 6.449881734095057e-06 6.060473707713515e-06 5.931957013795042e-06 5.983211030960271e-06 9.324495869609226e-06 9.210301124281062e-06 9.208265283270901e-06 9.138274659460273e-06 8.593799391191434e-06 7.88557462441388e-06 6.112857118197508e-06 5.011786929798182e-06 4.162042562777691e-06 3.5097363605195715e-06 2.943408559287593e-06 2.398516225173377e-06 1.8782256227583086e-06 2.559620332270334e-06 2.7928722392465004e-05 0.00024784796210685034 2.606351867764009e-45 2.292610424348843e-39 1.5683105444161593e-33 1.0273536267907364e-27 4.98574659670698e-22 1.281522771402133e-16 3.2844657495060663e-16 6.204515197263495e-16 9.791125987585285e-16 1.3793889451647563e-15 1.5363743765941317e-15 2.1570825261947163e-15 2.758156784373612e-10 6.292201636042994e-05 2.361781170307296e-07 6.6478385179736404e-09 1.683010734069383e-08 4.4548294349159145e-06 8.764371924470333e-06 8.235029183762698e-06 7.766844803460704e-06 7.356135843249601e-06 7.050015945822886e-06 6.845158086654878e-06 6.977607936797905e-06 3.34483930570404e-05 4.276836088384358e-06 7.384634630225808e-06 9.590110314683515e-06 2.2651977467777377e-05 7.886356920804348e-06 7.1334932864338545e-06 6.189602308226923e-06 5.436559985696148e-06 4.7763307806030525e-06 4.149993118506983e-06 3.488384530691204e-06 2.795187403801566e-06 3.6431944884711765e-06 3.8615737577756143e-05 0.00036256592808170363 1.393862580387661e-39 1.2632774698042605e-33 8.464123905023489e-28 5.5047393340040775e-22 2.9070927878979776e-16 9.071948664106911e-11 1.4017693991039483e-10 1.981665690045888e-10 2.559721345217357e-10 3.2759227136035837e-10 2.659559933728326e-10 1.3855534437961305e-10 3.747092926959773e-10 6.297194398503847e-05 2.2961356725519522e-07 3.8961793622687713e-10 1.5467247775844204e-09 4.40540271050375e-06 8.765226015600863e-06 8.457752209836166e-06 8.167014436409813e-06 7.889204412514424e-06 7.62308781935704e-06 7.404017650800441e-06 7.312936821038794e-06 2.457330533737633e-05 4.058931572453521e-08 5.073841695093508e-09 9.505637533797613e-09 4.0779313920745185e-06 7.886986937947188e-06 7.3415332640820854e-06 6.742148526596535e-06 6.166974039145055e-06 5.63982824046072e-06 5.092257353061903e-06 4.433876778155235e-06 3.6742104812411928e-06 4.521689342217344e-06 4.5887314144788446e-05 0.00046807786003797276 3.2106272040650905e-34 3.0501950158187743e-28 2.19945836581297e-22 1.5866599725074426e-16 1.0448238337398857e-10 5.109932975076149e-05 3.328282925343157e-05 3.890465133043445e-05 4.2065862286071774e-05 7.768057811344144e-05 1.983821874423667e-09 9.43897267905064e-10 6.242706984098727e-10 5.688838674992228e-05 2.0433748450196562e-07 2.2203792913692814e-09 3.314056356637326e-09 4.407975651037089e-06 9.002728570500098e-06 8.864092929837379e-06 8.674466931737668e-06 8.429024297574717e-06 8.136786996281352e-06 7.829715306585808e-06 7.551192358377003e-06 2.6274090796148092e-05 4.2865904518330024e-08 3.4007789351374134e-11 1.2401998884134852e-09 4.061570770511367e-06 7.887906798387087e-06 7.457405817087657e-06 7.023824999129391e-06 6.620005545915058e-06 6.26289533008277e-06 5.867204280263785e-06 5.32226709289946e-06 4.4808360579113644e-06 5.134206090125791e-06 4.9911840366287426e-05 0.0005636232977745914 2.1382033409890418e-33 1.8520491400986915e-27 9.562496259200542e-22 4.65268776261487e-16 1.875486415437544e-10 4.485877982395552e-05 1.8508611093107913e-07 9.469405823302023e-08 1.1970567396455652e-07 5.674262609773077e-06 2.096421912213776e-09 1.1363965832403448e-09 8.690391762591756e-10 7.527606574919984e-05 5.604217076052131e-06 5.401580452272616e-06 5.406239514339531e-06 1.1296953744099064e-05 1.2949055384973024e-06 1.3530554235487249e-06 2.738136977074662e-06 4.73931861026177e-06 6.153751698729046e-06 7.057531692480373e-06 7.415200613396329e-06 2.6027913480482168e-05 4.636129714173684e-08 1.2740651200516745e-09 2.411024858130093e-09 4.06311853445578e-06 7.889126207793226e-06 7.510665253679707e-06 7.082471049158215e-06 6.916618627526715e-06 6.808196908104749e-06 6.707839327378409e-06 6.35837204820314e-06 5.806621735941344e-06 5.7950925089271395e-06 5.213100882361083e-05 0.0006509405884050268 9.175680154672844e-33 7.345300825095614e-27 2.7166291628101304e-21 9.826675476218511e-16 2.827497349456382e-10 4.964391615577649e-05 1.4945977394314314e-07 3.3162346301602764e-10 2.1265381269713056e-09 5.476299370496978e-06 2.226188281208639e-09 1.3617003640767354e-09 9.65462018413981e-10 2.6759828509381706e-09 2.7600988299717174e-09 2.805200622987176e-09 3.0012564552787992e-09 3.0671667834180095e-09 1.2934623815948462e-06 1.5344561281584915e-06 1.6793425353381734e-06 2.3769071963585206e-06 4.332130867722579e-06 5.878488776231176e-06 6.922849673909181e-06 3.9599744766807096e-05 4.132299289433315e-06 4.075274326066397e-06 4.076815876619038e-06 8.13683751094473e-06 7.894948955850112e-06 7.5317195259136765e-06 1.5237398668722192e-05 1.3015827841569368e-05 1.5237717346516128e-05 1.6201630351372644e-05 2.6643166040017468e-05 5.8709518721752385e-06 6.1963997413426844e-06 5.716789598546502e-05 0.0007327262072038883 4.549641491258721e-28 2.955261024289384e-22 7.670400235224172e-21 1.7419090078592921e-15 3.863955442186092e-10 5.2597662636282526e-05 1.7903981132905247e-07 2.3394992907159244e-09 4.02187832093254e-09 5.4798238571463724e-06 2.37624997489253e-09 1.5967058911214806e-09 1.2515923768571172e-09 1.9408337761664018e-09 2.1108760675079266e-09 2.311713905812157e-09 7.866672587171829e-05 5.5606047915570545e-06 3.2835789090241466e-06 2.7394262203750317e-06 1.8750059372689255e-05 2.379931019176601e-06 3.4126869085061796e-06 4.801324041761585e-06 6.28540562035027e-06 6.295376748918872e-06 6.310754730979997e-06 6.3320627179656515e-06 6.363100790382429e-06 6.421495074711943e-06 7.107833560129399e-06 7.491650785330277e-06 8.635693237086499e-06 1.4822300658066979e-08 1.3691191850319832e-08 1.67382616901267e-08 4.33906468273434e-06 5.993349086139001e-06 6.706655188780695e-06 6.434916543555716e-05 0.0008145127826327183 2.0716940466818632e-22 1.4752556166093708e-16 6.605798243093716e-16 3.768803783276192e-15 5.018268203419199e-10 8.803639993182818e-05 6.037268979742642e-06 5.755630829865508e-06 5.759169599225197e-06 1.123827065008543e-05 2.751159539174936e-09 2.022452765038447e-09 1.6131294338378328e-09 1.750220867183797e-09 1.8796471522457306e-09 2.240286313225066e-09 5.4372422383539935e-05 1.6300050407666344e-07 1.6974270194929732e-09 3.2423244978894683e-09 3.036786062775076e-06 2.3855296753591056e-06 3.1487777418444223e-06 4.0815221155957035e-06 4.993582582433695e-06 5.466703648417907e-06 5.578419896006383e-06 5.6857980988317494e-06 5.855238841715173e-06 6.059231634185751e-06 6.632036352883079e-06 7.308749740851584e-06 1.2103220495826954e-05 8.335394801763402e-09 9.290851086182699e-12 1.0480933185284518e-09 4.318925041277125e-06 6.188585464440284e-06 7.465467075362249e-06 7.639027177690711e-05 0.0008999803761567906 7.163988321101233e-17 5.71963567424326e-11 2.844426649464089e-10 3.6929092858456967e-10 6.143716504310528e-10 2.28856803279858e-09 2.458205419003582e-09 2.5263282011318343e-09 2.664188034876076e-09 2.9511038973999892e-09 2.9190038660804316e-09 2.500458350134822e-09 2.127567886245638e-09 1.949900566997058e-09 1.917495139886594e-09 2.3010754239280937e-09 5.342302008049866e-05 1.5314298936126662e-07 1.9428306862218066e-10 9.650050612081948e-10 3.020601141387009e-06 2.3957903047550617e-06 2.9835883635393537e-06 3.6262394855503746e-06 4.083833003807355e-06 4.346729010144596e-06 4.514872707147627e-06 4.724256932816332e-06 4.96348018484269e-06 5.539149850887996e-06 6.218243498603659e-06 7.099991387372161e-06 1.4407990348844928e-05 1.340909752436626e-08 1.0010757802443279e-09 1.9596341197599695e-09 4.319636137302015e-06 6.483186496589964e-06 8.554011637114783e-06 9.467300868571047e-05 0.0009927895491817855 1.627341453924365e-11 1.5277975648479575e-05 0.00011177200683641604 8.517263182735956e-05 8.726960320510558e-05 8.338682972067693e-05 8.86095187956493e-05 4.931657210125883e-09 3.9810202535759564e-09 4.006604164885364e-09 4.087258501157019e-09 3.943506394710331e-09 3.541157971655382e-09 3.057602509850983e-09 2.363895556664228e-09 2.4590323093959337e-09 4.988546900683841e-05 1.4550331703170946e-07 1.980478562376964e-09 2.7316563439037014e-09 3.0224161053042787e-06 2.4140625630080647e-06 2.92114518519565e-06 0.00013919963598038964 0.00012993287782323335 0.0001330881150669696 0.00013524897048876908 0.00014136545821146344 5.094022775264164e-06 5.360539179586367e-06 5.973830566034926e-06 6.8344911637306555e-06 2.8742754686242522e-05 3.97956263807796e-06 3.95731270554629e-06 3.957695918131498e-06 6.438489376218473e-06 6.905561237447222e-06 1.7815467741333283e-05 0.00013736694548768948 0.0010963670666548357 2.1328570512196437e-11 1.5077286775829764e-05 5.459210185434198e-06 3.830958301380671e-07 3.926093421892894e-07 3.5441066557389996e-07 6.040030126416811e-06 5.162191654534135e-09 7.04523311842324e-05 4.534442019445267e-05 4.5185516169363736e-05 4.373672532263192e-05 6.586521148563507e-05 4.3925046934254594e-09 3.102202065153031e-09 2.771931950667415e-09 6.848555129224485e-05 5.654898250633241e-06 5.493684950728686e-06 5.4950916189789295e-06 8.513828305483184e-06 2.4484272865386242e-06 2.9060995613230897e-06 1.4284899905091968e-05 1.4940354066694198e-06 1.5010038988021206e-06 1.513224416927703e-06 5.206205725499485e-06 5.130730148914736e-06 5.346021679233516e-06 5.791513227708965e-06 6.610629329105874e-06 6.655001009194586e-06 6.75758123425414e-06 6.999219426710001e-06 8.421576753572686e-06 0.005975225812762637 1.8845597785020435e-05 3.484343401639681e-05 0.00021471319485771105 0.001213571107564644 2.30998669380166e-11 1.5068768436959105e-05 1.1979502164619584e-05 1.3023769528981001e-08 7.77213856290935e-10 2.6949345202799524e-09 5.761004045869208e-06 5.252386509623668e-09 1.1220708252195233e-05 1.2450070905871726e-07 1.1217180810294341e-07 1.1210753407385128e-07 5.749839898757113e-06 4.467496841677175e-09 3.314618854919425e-09 2.925684304003999e-09 4.383721810536852e-09 4.494675540461279e-09 4.589432945131867e-09 4.7225017471318905e-09 4.7747964849257014e-09 6.517329927790116e-07 2.564719268560521e-06 1.5124219177396479e-05 2.9247158102409772e-08 8.557093118742331e-09 9.572905805406412e-09 3.6770823293220666e-06 5.1914251606544445e-06 5.365255508103791e-06 5.701151765098887e-06 6.22002301586363e-06 6.49103157808758e-06 6.6569981242704385e-06 6.951821361788282e-06 8.352664857223814e-06 0.00509682347693364 2.91129258520374e-05 7.282833598045403e-05 0.0002770189273832442 0.0013473026600828576 2.3744836398720407e-11 1.5069876382312834e-05 1.883528651350997e-05 3.0002861748115976e-08 1.904790089775003e-09 3.838566689567271e-09 5.765713528124894e-06 5.321704290504862e-09 1.3102108764164185e-05 1.1433633217577481e-08 1.3674898015290105e-10 1.9949808114256422e-09 5.61457858902951e-06 4.532770798530623e-09 3.499750515194248e-09 4.756061009639636e-05 4.28689066281397e-05 3.046748976149515e-05 2.6737475379434878e-05 4.744804985942181e-05 6.058323572328579e-09 3.273565454764433e-07 2.0923380830741595e-06 1.752739838374577e-05 2.7238945562672048e-08 1.3247405943975863e-09 2.2979970856108645e-09 3.6593676610254245e-06 5.317053872707934e-06 5.4465377369520514e-06 5.672795929256777e-06 6.030348094014709e-06 6.3206033903042296e-06 6.578725925832883e-06 6.925932363299589e-06 8.276297112243901e-06 0.003720949311865764 0.0004608493794670034 0.00010658474294917933 0.00032732053020961013 0.0014961589516263175 2.295218757517789e-11 1.4074929647125954e-05 5.523564017658537e-05 5.3991658152677845e-06 5.317212378351207e-06 5.319563971783253e-06 9.406611078604965e-06 5.428057306153745e-09 1.2636903390353603e-05 1.3623609049778417e-08 1.2104323506411107e-09 3.034668579110848e-09 5.617284290143589e-06 4.581938028560382e-09 3.582872883197192e-09 2.483973047775933e-05 1.1367002426816954e-07 5.324326102818305e-08 4.5761032563710385e-08 5.54936886371201e-06 6.21926704718302e-09 2.687405761893565e-07 1.6405572800282666e-06 2.070096631182608e-05 4.413948153016786e-06 4.394704812030988e-06 4.395522397342728e-06 8.033249062811e-06 6.065686167566418e-06 6.045003338565099e-06 6.046638707290437e-06 6.177256233933503e-06 6.368947267945601e-06 6.6089928609399775e-06 6.96343510771092e-06 8.22808202710205e-06 0.0027341517647025 0.0008871972404339336 0.00019948433562994584 0.00037829984035978064 0.0016567730927762015 2.1330747755665647e-11 1.2853189882080754e-05 1.2854724835103601e-05 1.2855314123555353e-05 1.2856461957404425e-05 1.2859400194828052e-05 8.158120641370963e-06 7.895620058894324e-06 2.146216407746751e-05 3.6610385106214396e-06 3.6436651484423872e-06 3.645403430184039e-06 9.259029575117917e-06 4.612003822722892e-09 6.260153139140702e-07 2.6895087997713238e-05 4.4301655519306405e-08 8.069222974581093e-11 1.74990867889048e-09 5.4889340808487575e-06 6.421995514670298e-09 2.0242844333479373e-07 1.3202575019305654e-06 1.3338145050450802e-06 1.3559873221869287e-06 1.3895944352481186e-06 1.4381936462955364e-06 1.5070070284886448e-06 1.5259687177254714e-06 2.9826868391540482e-06 4.145253902163516e-06 5.073426321873812e-06 5.8435859458848974e-06 6.385847114263742e-06 6.9210925150337e-06 8.196508227025955e-06 0.002052187921627151 0.0011249225263148508 0.0003276238935722392 0.000435646412508829 0.0018252411282943981 1.681887632114124e-11 9.391717905201698e-06 1.1655631773452774e-05 1.209357096214135e-05 1.2402139545916552e-05 1.2653009396539947e-05 8.242143341946077e-06 7.902771019442485e-06 7.904311605142155e-06 7.906333162151425e-06 7.909198224882707e-06 7.913712523940037e-06 7.94217125031418e-06 1.988041742058487e-07 6.253647465409779e-07 2.692094063543093e-05 4.7488422002037124e-08 1.6556305644692521e-09 3.2680417358324016e-09 5.491541471959668e-06 6.716910355388135e-09 1.3919979962415935e-07 6.747843604350353e-07 9.536489867199383e-07 1.0391170031234158e-06 1.1159726443511607e-06 1.19776195643974e-06 1.261177320855079e-06 1.355942272808555e-06 1.5484852096905575e-06 2.103698324834888e-06 3.070121904259496e-06 4.002460298487671e-06 5.568550044371135e-06 6.629561956668088e-06 8.138120872183677e-06 0.0015946857014363604 0.0012294064630293611 0.000454993706285239 0.0005006128207108065 0.0019990311499444666 1.3461418222895638e-11 7.761105354940613e-06 1.038277209000732e-05 1.1450775605951604e-05 1.2017719255576688e-05 1.2463601805118243e-05 9.062167349715978e-06 8.143698322174491e-06 8.040392839282802e-06 8.045116386446577e-06 8.062123277950871e-06 8.058578853975213e-06 8.034593936852096e-06 1.939467086391968e-06 7.517863860751405e-07 4.714942638611494e-05 5.32894603921297e-06 5.265220850882006e-06 5.268264897600954e-06 1.0757634514800465e-05 1.4532051585953752e-06 1.3264452498215587e-06 1.279082210597204e-06 1.3263068986620102e-06 1.3661617541382812e-06 1.395762844295847e-06 1.5186136267377088e-06 2.418852684055191e-05 1.438300852616356e-05 1.939548787267493e-05 2.2283915883590103e-05 3.9008202654595345e-05 4.103448847731724e-06 5.149965890325286e-06 6.448400560189345e-06 8.134947791581936e-06 0.0012936844653461427 0.0012617469177763191 0.0005662480235842363 0.000572119653741318 0.002177209836574873 1.1283567201347714e-11 6.707360392789259e-06 9.565237640733119e-06 1.0923523801088863e-05 1.1716288036167274e-05 1.2293334770034228e-05 9.496033029576143e-06 2.0609651891207694e-05 1.6049445111122973e-05 1.6959099438402023e-05 1.625445261240205e-05 2.7130919764544407e-05 8.045588574016087e-06 4.022328823841032e-06 1.3601299696684368e-06 1.3623665329144051e-06 1.364810422626707e-06 1.3682683595323964e-06 1.3730308950127764e-06 1.3793303297799182e-06 1.1094528854977805e-05 1.0101608918822549e-05 8.837939670796913e-06 7.768677877342918e-06 6.404727208780532e-06 5.281929749863264e-06 3.1256935316373422e-06 2.2759502747055077e-05 3.675774936450779e-08 2.1010983985789312e-08 2.9093773789782893e-08 4.26310837812827e-06 4.273198296055945e-06 5.21304626139818e-06 6.437184529435808e-06 8.270946259789824e-06 0.0010928782114318972 0.0012614209439296405 0.0006593804227863478 0.0006490363710617617 0.002359786942672052 9.976220101763182e-12 6.054653945140877e-06 8.97608385551076e-06 1.0526470165244642e-05 1.1470385145427427e-05 1.2155271833599123e-05 9.84069370875128e-06 1.0303795707360264e-05 2.832344739725336e-08 2.3286857546783643e-08 2.443355118085033e-08 3.693841542803844e-06 8.063629330006385e-06 4.785774738665467e-06 2.9048183830724565e-06 2.1810192012239496e-06 2.071375308634413e-06 2.0161471632797802e-06 1.9409261444840703e-06 1.9749371678004387e-06 2.9670804336452537e-05 1.0993388328455839e-05 1.7344955096424612e-05 2.093155971481244e-05 3.8370634356183386e-05 5.359079462263667e-06 3.924981911922157e-06 2.378981365034945e-05 2.8859674836988586e-08 2.8321115082798126e-11 1.0442648096916535e-09 4.219992850465552e-06 4.505581089706128e-06 5.399089734016065e-06 6.60470046270714e-06 8.551530965528652e-06 0.0009564886965179206 0.0012489294489599245 0.0007380866281102935 0.0007309882705424227 0.002547215547016754 9.1232366137365e-12 5.595496932996821e-06 8.531233625337904e-06 1.0198757956432974e-05 1.1255590393342594e-05 1.2027022672428403e-05 1.010718083231713e-05 1.324098353369904e-05 1.186502589542549e-08 2.126455266075583e-11 1.1118973988659751e-09 3.6629756242341843e-06 8.090983629220815e-06 5.378175846676856e-06 3.6031667969607483e-06 3.1680488249011457e-06 2.9862209747143558e-06 2.9246703896838328e-06 2.768862472112526e-06 2.593532099064914e-06 2.8657790305491575e-05 4.765861943849112e-08 2.1085939098711577e-08 3.023169201616906e-08 4.506430685201611e-06 5.47601508985749e-06 4.127785176627648e-06 2.3859483686302138e-05 3.24669214321341e-08 1.1688285954713091e-09 2.1442407190635074e-09 4.221464193619728e-06 4.808388983008975e-06 5.680301809186525e-06 6.885942039346777e-06 8.970016533386014e-06 0.0008560866931477713 0.0012322677501757106 0.0008072403427826463 0.0008181858997703686 0.0027400231172234517 8.490834739702916e-12 5.233742236034017e-06 8.15075905693002e-06 9.893070993973592e-06 1.1034242104453933e-05 1.1878943150835224e-05 1.0335237974868452e-05 1.53372910993745e-05 1.7522761921320768e-08 1.4209286870590887e-09 2.4419411181002775e-09 3.6647954815786366e-06 8.13041307429732e-06 5.541576729512972e-06 2.3645840788550427e-05 2.3431201387431552e-05 2.7044291118680202e-05 2.90616360938877e-05 4.832227324689829e-05 2.6028649125970103e-06 3.334887321848423e-05 4.4727614334651783e-08 4.107448746585589e-11 1.2012218545728843e-09 4.460230349825987e-06 5.628443385785806e-06 4.422924829131893e-06 3.9380021808502296e-05 4.626130926746358e-06 4.582725342950677e-06 4.583822291642446e-06 8.802353604310053e-06 5.208578150041363e-06 6.052940050159263e-06 7.254906408854604e-06 9.495231970764222e-06 0.000773971577721571 0.0012128523461341061 0.0008707135068850121 0.0009109849557070382 0.0029385724334205997 7.955678027040357e-12 4.914591839288073e-06 7.787159872217886e-06 9.571729860218839e-06 1.0767068318606107e-05 1.1671080208153618e-05 1.0630493867187532e-05 3.263509592846876e-05 4.809469200531963e-06 4.780126766517392e-06 4.78138376935261e-06 8.44294649738931e-06 8.182968736898058e-06 5.667059743308335e-06 1.3609664388290565e-05 4.265490942469708e-08 4.117663344012404e-08 5.190270039569299e-08 5.065191507722491e-06 2.6130379821683047e-06 2.3066824937658954e-05 3.303078412603219e-08 1.3561738616836344e-09 2.4672631540327034e-09 4.46193961631662e-06 5.863823534867009e-06 4.772168758186401e-06 4.912813036097722e-06 5.144725055534787e-06 5.436592311445211e-06 5.818784000802693e-06 6.550021768124925e-06 5.858165532612416e-06 6.5047990809804805e-06 7.687303887715597e-06 1.009463583612102e-05 0.0006998515620554234 0.001189543457126445 0.0009308024689853582 0.0010095254247480111 0.003142940368944451 7.464592086003101e-12 4.615751828474969e-06 7.42058736987544e-06 9.212867244312404e-06 1.0441486677016872e-05 1.1333085333618316e-05 1.081417861981203e-05 1.0861640545494753e-05 1.0965974537564539e-05 1.1170915578445602e-05 1.1645083537537622e-05 1.649332601710473e-05 7.522339467187265e-06 5.776922425369598e-06 1.924046745605375e-05 2.4222899297034432e-08 4.6199341846739033e-11 1.4546031637575121e-09 4.989808203704439e-06 2.6240567891382e-06 3.906643949692277e-05 5.027262432822547e-06 4.988782826990782e-06 4.990704593209291e-06 9.450137420974457e-06 6.3196229451893315e-06 5.7527674770239286e-06 5.683435596127905e-06 5.9479088048023795e-06 6.303437203837521e-06 6.622459453453461e-06 6.9575867686517575e-06 6.726950242132516e-06 7.06418614055614e-06 8.179314127914828e-06 1.0748222347245548e-05 0.0006298320961194965 0.0011608411393584928 0.0009882855332715595 0.0011135405497863233 0.003352838456309776 7.013159349469763e-12 4.340401673299303e-06 7.055977442111552e-06 8.828360328253027e-06 1.0044397483719056e-05 1.0946893309230248e-05 1.0903944009512327e-05 1.0929953881446126e-05 1.1021237093678664e-05 1.1216691317665745e-05 1.166199097626597e-05 1.553463548789061e-05 1.0862464809955364e-05 6.292339015178031e-06 2.4536448618036905e-05 4.079927945818984e-08 1.2097588830793938e-09 2.5597517755173367e-09 4.990772347525808e-06 2.6372593869299896e-06 2.6538234406041634e-06 2.6890461270816787e-06 2.7456828722915538e-06 2.8359116602035303e-06 3.036331900457133e-06 6.689110710542794e-06 2.0914294858242165e-05 1.931204627155557e-05 2.3035893019104135e-05 2.30666315520412e-05 4.004769498363925e-05 7.26944317769282e-06 7.320498995006635e-06 7.654608880264035e-06 8.740607577815991e-06 1.1462268856379276e-05 0.0005633238372957689 0.0011257068718113774 0.0010427876898597846 0.0012222314560793779 0.003567643953674501 6.6313004935183364e-12 4.110352959602956e-06 6.730444998088596e-06 8.446207343401144e-06 9.627927354960924e-06 1.048047141121622e-05 1.074738631203541e-05 1.0881660008115817e-05 1.1023112002031848e-05 1.1240643272574377e-05 1.1662649871641873e-05 1.4046756187109827e-05 1.297617679719613e-05 8.890557353348828e-06 5.110021415434061e-05 4.604317967848942e-06 4.528833746343005e-06 4.530423861240149e-06 9.518981796816736e-06 2.6713497884611988e-06 2.6872455982593898e-06 2.7270327655892415e-06 2.7910532584542967e-06 2.881821412814335e-06 3.0454426590730726e-06 5.9226319167265e-06 2.308981337136728e-05 4.277263078833328e-08 2.6954475101045724e-08 3.05853328790865e-08 4.603308765923022e-06 7.783905163013068e-06 7.893614470020419e-06 8.305631183148891e-06 9.402707899299164e-06 1.2254494458504468e-05 0.00050041813312556 0.0010831158526480292 0.0010929864558881293 0.001334108435542752 0.0037863138077097983 6.3913291772375695e-12 3.973938198024504e-06 6.495535399634983e-06 8.143378124767078e-06 9.231254086779444e-06 1.0015548796132824e-05 1.0428542167083563e-05 1.0696829726244653e-05 1.0927030993842835e-05 1.122486600537611e-05 1.1767025746957005e-05 1.3085959966555472e-05 1.363450124938261e-05 1.1015252915019911e-05 1.1151451799260868e-05 1.132845763149871e-05 1.169979368129289e-05 1.2603750531570184e-05 1.5025889925823062e-05 9.821588293601237e-06 7.843695243519535e-06 7.565032317338588e-06 8.059909678831062e-06 8.595534425772064e-06 7.673712427984146e-06 7.428140277676226e-06 3.067816385123951e-05 3.7972789218131175e-08 3.7689712952576543e-11 1.073771711907641e-09 4.560769539529003e-06 8.482008330845619e-06 8.642226079046244e-06 9.088913134468863e-06 1.019219237506948e-05 1.3138749539281441e-05 0.00043984705874284104 0.001031361240591437 0.0011365233992737713 0.0014467632320616926 0.004007398508407687 6.368953079051671e-12 3.978639021596861e-06 6.501968253950248e-06 7.948934281514215e-06 8.937290828200709e-06 9.568399569433674e-06 9.995573654673985e-06 1.0343738291271347e-05 1.0725788026366062e-05 1.1143073232693625e-05 2.3371865880119904e-05 2.310429053958779e-05 3.0474699765663725e-05 3.098839729091638e-05 5.6739118515331514e-05 1.1547627460638246e-05 1.191596560135824e-05 1.2900898082648821e-05 1.5434470048487477e-05 1.728257678681363e-05 1.7350615876008112e-05 1.56087111932295e-05 2.1289111262944796e-05 2.6335442881365764e-05 5.0788188378408666e-05 7.709550368312156e-06 3.4305388681743066e-05 4.5204267103619666e-08 1.1083958468289096e-09 2.0931823474690378e-09 4.562357543883811e-06 9.408990076429118e-06 9.60620200667464e-06 1.006078338795232e-05 1.1134822635601064e-05 1.4101444255152513e-05 0.00037989810694369125 0.0009677549589609109 0.0011696119799205161 0.001556536474697824 0.004228923705431078 6.523632442656225e-12 4.090477351844042e-06 6.656979278572635e-06 8.24353350770197e-06 8.864837911842863e-06 9.202121464687835e-06 9.461091346319099e-06 9.794625360511972e-06 1.0138607758665604e-05 1.0961753739968888e-05 2.073178682814449e-05 4.738997051766306e-08 4.200831853293131e-08 5.066547123634519e-08 4.599563066574892e-06 1.210373612231655e-05 1.249523471121426e-05 1.354991112027715e-05 1.630175132402232e-05 2.0997850434246563e-05 1.76143271766745e-05 2.6124630890766028e-08 2.1287955576182377e-08 3.4627718821280036e-08 4.925472438032867e-06 8.035685916672358e-06 4.4730944328286134e-05 4.904465170545636e-06 4.858625287410391e-06 4.860252563222535e-06 9.420410216532085e-06 1.0710646191086814e-05 1.0903740676075637e-05 1.1290732093806162e-05 1.2258696577128801e-05 1.5118978925978105e-05 0.00031948988052749516 0.0008895333184701235 0.0011868529274585834 0.0016582149404876707 0.004448360705849543 6.8818952664558375e-12 4.3330817788607725e-06 1.0880828813000318e-05 3.7362853448930565e-05 2.7357199427032284e-05 2.9836464217380736e-05 3.0637752928888845e-05 4.8132637172370515e-05 1.0160829146514272e-05 1.082877658815358e-05 2.4279495975839777e-05 2.9589372712485123e-08 4.532316535774617e-11 1.17437762159131e-09 4.528771827009898e-06 1.3188476364461742e-05 1.3636619218614692e-05 1.4751532375721076e-05 1.766516086702998e-05 2.418534857362344e-05 2.2211806243588176e-05 2.2721885729189005e-08 2.237983533195493e-11 1.1544354283061119e-09 4.8587061040840145e-06 8.42323850749266e-06 8.865621319840716e-06 9.82172778839067e-06 1.1327366841229053e-05 1.3725025206180316e-05 1.890108274634505e-05 1.3106179970103905e-05 1.2907548956124732e-05 1.2965878968782726e-05 1.3649798766763149e-05 1.619800248170226e-05 0.0002594158949004163 0.0007953830879270073 0.001181676422087583 0.0017449364185678615 0.0046626569239252205 7.203528442940459e-12 4.531682071643945e-06 1.0728549316632469e-05 5.32069367437939e-06 3.720087577387827e-08 4.0809527556616416e-08 4.7264722214358917e-08 5.5003959308813295e-06 1.0191567626390906e-05 1.0882602784800204e-05 2.516346194987009e-05 3.443048188752186e-08 1.4176866930031938e-09 2.474684712799723e-09 4.530846854653982e-06 1.5433249849455127e-05 1.5842082183235466e-05 1.6792316795737796e-05 1.9420911485707404e-05 2.690505466056078e-05 2.48135023819231e-05 3.027326546739171e-08 9.869479922026405e-10 2.070235755247591e-09 4.859338019441455e-06 9.423036778087435e-06 9.835488055615538e-06 1.0850303548451955e-05 1.2424636056276096e-05 1.4773677744512966e-05 1.92481903221228e-05 1.931482691913585e-05 1.723954282585932e-05 1.596243983486362e-05 1.5732156525932265e-05 1.752003633834836e-05 0.00020234441625898437 0.000686969136943652 0.0011476505039032378 0.0018084073159358406 0.004868324125714009 7.2571099654257244e-12 4.540613186709535e-06 1.072737921308442e-05 9.289404887854366e-06 5.7452501477516965e-09 2.7963066234114217e-11 1.5528541605933662e-09 5.438803589580858e-06 1.023048520192923e-05 1.0901619294811097e-05 4.2572999172349024e-05 5.361577974212757e-06 5.317137359098306e-06 5.319187064117508e-06 9.847704845572881