# vtk DataFile Version 3.0
vtk output
ASCII
DATASET RECTILINEAR_GRID
DIMENSIONS 41 41 1
X_COORDINATES 41 double
0 1 2 3 4 5 6 7 8 9 10 11 12 13 14 15 16 17 18 19 20 21 22 23 24 25 26 27 28 29 30 31 32 33 34 35 36 37 38 39 40 
Y_COORDINATES 41 double
0 1 2 3 4 5 6 7 8 9 10 11 12 13 14 15 16 17 18 19 20 21 22 23 24 25 26 27 28 29 30 31 32 33 34 35 36 37 38 39 40 
Z_COORDINATES 1 double
0
POINT_DATA 1681
FIELD FieldData 1
Concentracao 1 1681 double
0.0 1.1530055727029858e-57 1.6005854583213226e-51 1.5183667977898924e-45 7.710255733119188e-40 1.708770496301626e-34 9.066616676809282e-34 2.906547696735692e-33 7.075903131295958e-33 1.4678463336960287e-32 1.3339699293635943e-28 6.783041523850826e-23 2.976798507641913e-17 8.336024756520408e-12 8.252487571412606e-12 8.248486872963491e-12 8.248894314215905e-12 7.702241764750152e-12 7.0293282211182535e-12 5.121323619571701e-12 4.213800902030156e-12 3.6324451679961854e-12 3.3172902128145104e-12 3.1998783413041993e-12 3.230981516998923e-12 3.334085780968674e-12 3.4395352316924443e-12 3.445062566638412e-12 3.3703011503707568e-12 3.1718396282591285e-12 2.754218994435351e-12 2.358168240430906e-12 1.947485383242228e-12 1.6474585425929111e-12 1.5639761962587305e-12 3.4195679348187592e-12 1.9800167908730276e-11 1.0626307762304304e-10 3.979540962535721e-10 9.423813430138495e-10 1.153079187149837e-09 1.335573789962737e-57 1.441258118884305e-51 2.0007334234871114e-45 1.8979600156041632e-39 9.637827376654717e-34 2.1359647949993526e-28 1.1333279912628278e-27 3.6331874177542226e-27 8.844885711144055e-27 1.834809371114487e-26 1.6674637456744222e-22 8.478808595603572e-17 3.721001111350899e-11 1.0420039219204577e-05 1.0315617716753329e-05 1.0310616839691236e-05 1.0311126125637625e-05 9.627809908179455e-06 8.786667300848562e-06 6.401659612384413e-06 5.267255341338596e-06 4.540560062194618e-06 4.146616063972695e-06 3.999851104971409e-06 4.038730127230171e-06 4.167610560296623e-06 4.299422472706817e-06 4.306331652643438e-06 4.21287980721222e-06 3.964802705622916e-06 3.442776497263183e-06 2.9477126567842288e-06 2.4343586761496567e-06 2.0593248256996815e-06 1.9549718090350867e-06 4.274463338091384e-06 2.4750229686080755e-05 0.00013282895329188142 0.0004974430182710614 0.0011779776208543963 0.0014413501370164833 2.5108461220480164e-51 2.2272541818839848e-45 1.8831133721905795e-39 1.4326181639232551e-33 7.049459687247577e-28 1.6565984737257016e-22 6.298331610569252e-22 1.5676658498009148e-21 3.0847757650096954e-21 5.203606094976744e-21 8.543332940028535e-21 4.952132760748962e-16 2.252739152773988e-10 8.532404028750964e-05 4.480742703876065e-06 8.045481328727348e-06 1.2937904281559184e-05 4.040151343293287e-05 8.787786013185888e-06 7.95398214840378e-06 7.053618084780811e-06 6.4674318917719476e-06 6.076964597466044e-06 5.948098535812236e-06 6.0005629823666335e-06 9.344852168348928e-06 9.23070794027964e-06 9.230017496705598e-06 9.162031890726001e-06 8.618973056326435e-06 7.911723040654468e-06 6.137876440041877e-06 5.043523363676699e-06 4.243274106798344e-06 4.1832347292767385e-06 9.784350111704846e-06 5.289006673096169e-05 0.00026385369265152737 0.000957349787350616 0.002263614407815653 0.0027895280445129605 2.6099260138770326e-45 2.2957543296701078e-39 1.5704612011256316e-33 1.0287624573769458e-27 4.9925836457471405e-22 1.2832801454548386e-16 3.2882048494724907e-16 6.211491263958276e-16 9.802173394872886e-16 1.3812124875246745e-15 1.5385469558137107e-15 2.1605688320629783e-15 2.763370679110163e-10 6.303434207388938e-05 1.4244720799421084e-07 3.925571015137297e-09 1.0121491573012951e-08 4.440872652304303e-06 8.78821772177018e-06 8.25743571519633e-06 7.78797793588348e-06 7.376151880228574e-06 7.0691994411793296e-06 6.863784717128899e-06 7.0088225269152796e-06 3.3486736096544454e-05 4.263106963134557e-06 7.386429411048138e-06 9.590876705441157e-06 2.2672250215911995e-05 7.917160321999009e-06 7.169973046697248e-06 6.249128754655717e-06 5.641350351817183e-06 6.439455308755812e-06 1.767485700185511e-05 8.60074358919973e-05 0.00038739233352249995 0.0013472780261078396 0.003211120788487714 0.00402688380469397 1.3957740131394991e-39 1.2650098282765812e-33 8.475730928931643e-28 5.512288090782872e-22 2.9110793385875975e-16 9.084389182658196e-11 1.403208222484403e-10 1.983869075049226e-10 2.562622738431932e-10 3.2812608416275934e-10 2.663893742086976e-10 1.38781125632879e-10 3.753965700329054e-10 6.308910797018338e-05 1.3818701068383628e-07 1.4095416661273236e-10 9.084357841949617e-10 4.411029860332598e-06 8.789739810081975e-06 8.481434389288958e-06 8.18992224016074e-06 7.911381014002894e-06 7.644557789533109e-06 7.424953192016225e-06 7.359016611024862e-06 2.458866585967901e-05 2.273641734265652e-08 2.8723334163957835e-09 5.31723730664721e-09 4.072712680856515e-06 7.943025533406234e-06 7.414389008210303e-06 6.903172617894314e-06 6.926932425728678e-06 1.0675380929495636e-05 3.287608897416813e-05 0.00012927408983518865 0.0004872471809547558 0.0016357290540070777 0.003966511915802785 0.005136602317772805 3.2150299997626104e-34 3.0543778074343777e-28 2.202474525100393e-22 1.588835788966926e-16 1.0462566195166689e-10 5.116940312978262e-05 3.3302350755231426e-05 3.8954091963238525e-05 4.211591811532756e-05 7.788150734168756e-05 1.988698714936999e-09 9.46152944809833e-10 6.255064394724302e-10 5.697686713266322e-05 1.2264616486988548e-07 1.2358412858855427e-09 1.9027761304699815e-09 4.410901212075716e-06 7.410526630625297e-05 6.682493166064702e-05 5.699496103288663e-05 4.619502834936766e-05 3.5846988605449696e-05 2.6960156489970358e-05 1.8883404721352334e-05 2.6292538712120626e-05 2.3646235543703078e-08 1.0470383080619294e-11 6.534043974521293e-10 4.0635429728528865e-06 8.361536861730012e-06 8.18831133591458e-06 8.964889649225536e-06 1.473919364254484e-05 3.7008194364513066e-05 9.267071185625219e-05 0.0002187103563419358 0.0006115633495376293 0.0017749358559696596 0.004504017081612984 0.006118859475732123 2.1410279168069102e-33 1.854491119221298e-27 9.575016089319766e-22 4.658710711765692e-16 1.8778615566898823e-10 4.491173018708253e-05 1.1366969209800699e-07 5.799071614005439e-08 7.313237725012995e-08 5.604685121681256e-06 2.0999180964277938e-09 1.138859498662158e-09 8.708530201305478e-10 7.545141860015052e-05 5.526291554936298e-06 5.404734271278572e-06 5.4075160418320264e-06 1.130915898731902e-05 1.3020837095597277e-06 1.3628247028716415e-06 1.3638425933335774e-05 2.8371693646423672e-05 3.544979525371074e-05 3.5155101559521275e-05 2.750983930086529e-05 2.6042479278921213e-05 2.5280538343952685e-08 6.642882515978868e-10 1.2401406606647183e-09 4.064217751867743e-06 1.66827579798328e-05 2.3706123197582805e-05 9.006169887176388e-05 0.0002870520061843261 0.0005862460553411579 0.0009350799710176646 0.001080143685463616 0.0012121116221234525 0.0020752897948777996 0.004960139721628797 0.006997966089797068 9.189208901182881e-33 7.355879267426863e-27 2.7202096528161952e-21 9.839666662494779e-16 2.831291177650726e-10 4.971615712899447e-05 9.137924794714217e-08 1.240403913316997e-10 1.247619632734912e-09 5.4838174786024005e-06 2.229862663985151e-09 1.3644137915129224e-09 9.674519407998065e-10 2.6819573821859365e-09 2.7649045968195162e-09 2.8100328304827683e-09 3.0065784864415177e-09 3.072007606002643e-09 1.2931180182680591e-06 1.533830590689867e-06 3.1638105787484046e-06 9.543971507661915e-06 2.5132238310053094e-05 3.4290672704104184e-05 3.3011682018687626e-05 3.964834244746127e-05 4.1070842723317e-06 4.075955872844346e-06 4.07649866460787e-06 8.137543087984518e-06 0.00010030923082530066 0.00010768596384117229 1.5238252777238486e-05 1.300513287161498e-05 1.520798656468869e-05 1.6143976370283967e-05 2.6539724770005396e-05 0.0014979885899387769 0.0023788125179626425 0.005587706895833287 0.007805290837132046 4.563094006896147e-28 2.963984430903506e-22 7.682639818129292e-21 1.7442469931676051e-15 3.86922711408076e-10 5.2672148290913986e-05 1.0905213069683693e-07 1.343847176855163e-09 2.4064926650868984e-09 5.4859779138758646e-06 2.3800929565572885e-09 1.5996810299344549e-09 1.2540289073092306e-09 1.9449822934986023e-09 2.1151611105743667e-09 2.3164497411683e-09 7.887244208216096e-05 5.498046365704505e-06 3.2826957078973845e-06 2.7373553441120252e-06 1.877617978756108e-05 1.0268409049378536e-05 1.972588555798174e-05 3.097216138131076e-05 3.4971112420775415e-05 3.7504654276650245e-05 4.17263102827052e-05 4.76004494465961e-05 5.620403453625588e-05 7.254937473170152e-05 0.0001672349575003409 0.000263803198796009 8.626392385871308e-06 6.925219141627767e-09 6.198131545844101e-09 7.332857437520473e-09 4.292348520396113e-06 0.0019928717511177975 0.0029979086010271713 0.006387791793348669 0.00859658693893749 2.0778493108245672e-22 1.4796104393913113e-16 6.624172427722561e-16 3.7751888681590526e-15 5.027321302269535e-10 8.82683518255406e-05 5.934140820980446e-06 5.762891863566055e-06 5.765097351165378e-06 1.125077506872157e-05 2.7554198015500016e-09 2.0259019327581853e-09 1.616040950076658e-09 1.753649798743857e-09 1.8833833171051694e-09 2.2446385200598228e-09 5.4454193320336204e-05 9.47458087589246e-08 9.452555575573288e-10 1.8587569883490465e-09 3.0326219387703834e-06 1.1805637460266281e-05 1.98574485396036e-05 2.926113723848654e-05 3.4810990288552624e-05 3.906226815849058e-05 4.356880507328323e-05 4.9419229050390175e-05 5.805515937502737e-05 7.293731806374949e-05 0.00015641644792870404 0.0003635652062523117 1.209000304463621e-05 3.808268591635155e-09 2.0368738765829767e-12 4.2136898359481436e-10 4.269513379885307e-06 0.0026870102665916052 0.0038711888527285456 0.007480472744467939 0.009405970207512316 7.185840172047413e-17 5.736879118540448e-11 2.852338103168026e-10 3.7010192052790177e-10 6.155923132090261e-10 2.294158723006633e-09 2.4629587022514077e-09 2.5311674420720455e-09 2.669169247231379e-09 2.956404524147519e-09 2.924140617634449e-09 2.5048103691948885e-09 2.1313168685112812e-09 1.9535008121191644e-09 1.9211602657088916e-09 2.305450064210858e-09 5.3506660931776504e-05 8.840128178817424e-08 6.47590235910079e-11 5.296717230978723e-10 3.0232534273503947e-06 1.4637597479447576e-05 2.245588001836137e-05 3.145917531146194e-05 3.7784870926250615e-05 4.324815287106786e-05 4.87416721211993e-05 5.4184536114604914e-05 5.98209381435266e-05 7.398588450369619e-05 0.00014575932653302238 0.00041560086528107793 1.4387362257193831e-05 6.100598077220593e-09 4.2845541664391557e-10 7.708323299357815e-10 4.250713344292298e-06 0.0035896915756117136 0.004986438933339705 0.008801025786872679 0.01026414030503217 1.6327107279457e-11 1.532838397472281e-05 0.00011214078724424918 8.536048962607113e-05 8.747532154931294e-05 8.356862634334146e-05 8.88249066286223e-05 4.942343256551391e-09 3.98924905326361e-09 4.014504078207119e-09 4.0950840873011075e-09 3.950851588144703e-09 3.547712083825266e-09 3.0632637368466586e-09 2.3683470141895355e-09 2.4636277159463293e-09 4.995383768470326e-05 8.347333718429325e-08 1.0693910394266843e-09 1.506559949727783e-09 3.024139823539508e-06 1.9720738721889653e-05 2.9502097619121367e-05 0.00014002059416788674 0.0001306030622797299 0.00013377947487845426 0.00013594853202626716 0.00014211683552772122 6.501514888484029e-05 7.701229209265588e-05 0.00014256507444327515 0.0004140247987146036 2.8721377109223682e-05 3.958342887107678e-06 3.940613847889406e-06 3.905810966227703e-06 5.2531159463574316e-06 0.004690539929355952 0.006521773411851518 0.010304849322455088 0.011195932031825674 2.1396153106886625e-11 1.5124325594069475e-05 5.345035564251593e-06 2.3184467321141739e-07 2.3760559190050629e-07 2.140152785757164e-07 5.934344925845035e-06 5.1714892894269345e-09 7.060283319388028e-05 4.539279495171826e-05 4.524332094108837e-05 4.3787271506927075e-05 6.599558614826546e-05 4.400814073103547e-09 3.1080650745893686e-09 2.7771715348151327e-09 6.862859942790855e-05 5.589627709806011e-06 5.497431551159091e-06 5.498225887086329e-06 8.520159051121211e-06 2.939386260127151e-05 4.1395424264721864e-05 1.361875090413145e-05 7.981934656486399e-07 7.950034439401752e-07 7.945818779094431e-07 4.473824928190488e-06 7.51784150347923e-05 8.661398627416168e-05 0.00014129566764766873 0.0003982407666525062 0.00046192217906608696 0.0006170488377761067 0.0009999838519838048 0.002535975739027774 0.00935739856751724 0.006892740688512886 0.00849752798084603 0.011961762700050706 0.012216951996808143 2.3172225968433726e-11 1.5115695048420787e-05 1.198713432933963e-05 7.740897725824655e-09 2.8418152817925934e-10 1.4522355673077923e-09 5.766068160846918e-06 5.261661991154609e-09 1.1179229784544724e-05 7.340592661650733e-08 6.53909841373562e-08 6.485020926235595e-08 5.696478823225761e-06 4.475124955933082e-09 3.320772708438791e-09 2.931163056028851e-09 4.392201070846731e-09 4.502601399198692e-09 4.59745851396846e-09 4.730762353213965e-09 4.8028307824754325e-09 9.206867843435368e-06 4.643196356473194e-05 1.513553793066658e-05 1.3159771085599513e-08 2.420647939386923e-09 2.8927578799126687e-09 3.6710513160952517e-06 9.297512567032065e-05 0.00010399905354542164 0.00014988989848514967 0.00032422451716042236 0.00046049549568156014 0.000627184710427924 0.0010197330816974315 0.0024982307997814487 0.008620962402294062 0.010329620159352517 0.010945005076304783 0.013807563269970503 0.013338435209495169 2.3818926063942113e-11 1.5116797569801341e-05 1.8843024730938552e-05 1.815808712836718e-08 1.1280610091869235e-09 2.244659768138937e-09 5.768920488848788e-06 5.331019771821615e-09 1.3110036685682585e-05 6.738392735305944e-09 4.654943724071206e-11 1.1046881341672515e-09 5.618313828728161e-06 4.540471889008776e-09 3.50618282671143e-09 4.7623803787115576e-05 4.2922180069533876e-05 3.0485210783197375e-05 2.6753622332767977e-05 4.752965495567413e-05 6.101312144706268e-09 5.0725176517655855e-06 4.4346165671497075e-05 1.754755556391332e-05 1.4114855078982599e-08 6.532574387525448e-10 1.1151534632250642e-09 3.6583451975800805e-06 0.00013042875508985168 0.00013957921451981866 0.00017371755954452407 0.00029982107411807076 0.00044791371104539816 0.0006502915549436646 0.0010530731062388483 0.0024508961114726984 0.0073285654294640784 0.012395089659084183 0.013438419521172614 0.01576645944051699 0.01453305505855683 2.302370712332387e-11 1.411875316608276e-05 5.534440226546447e-05 5.374081357717715e-06 5.324331389147368e-06 5.325707362275673e-06 9.412137942258594e-06 5.437421762723629e-09 1.2641015385711702e-05 8.013192702244706e-09 6.823294390944181e-10 1.7025242839918132e-09 5.619848268414024e-06 4.589720136358767e-09 3.5894070605033465e-09 2.484510993373137e-05 6.427229768153943e-08 2.9992156824183127e-08 2.564781217443412e-08 5.528610351083655e-06 6.2867763256751636e-09 4.67038068647692e-06 3.8921720347732366e-05 2.0728373778422854e-05 4.426488367281972e-06 4.416247430666835e-06 4.416268933134693e-06 8.047126842152422e-06 0.00042866363972646925 0.00039936628396241707 0.0003635955433460187 0.00040202492056549814 0.0005058992226405883 0.0006985689839596586 0.0010999737423506078 0.0024067757668710223 0.006450500831333388 0.013235106553270247 0.015717848263312132 0.01769492122361585 0.015760193010902774 2.1397181220861104e-11 1.2893209621899683e-05 1.2894747908990447e-05 1.2895337914561581e-05 1.2896494245310604e-05 1.3335767847291216e-05 6.85793465331403e-05 7.903008454582554e-06 2.148202923868308e-05 3.65664709320814e-06 3.6463865320380443e-06 3.647307211362918e-06 9.264929445529851e-06 4.619917391192393e-09 6.265752299777016e-07 2.6918996939749773e-05 2.478354578909167e-08 2.549942719295287e-11 9.385856125246018e-10 5.494803201013242e-06 6.535028942277996e-09 4.066579855678303e-06 3.430089061159346e-05 3.788375636872611e-05 4.452304759349513e-05 5.495012718725977e-05 7.087360914031567e-05 9.502886719588997e-05 0.0001294318735885379 0.0002977442933102993 0.0004030687984187908 0.00048309295203165193 0.0005835480104661691 0.0007561162477078862 0.0011503075433496488 0.002391417606484905 0.00589559119919363 0.013459305535334988 0.01760313807756741 0.01954125649032993 0.016980444907712722 1.687124911596945e-11 9.42096019893367e-06 1.1691922186629269e-05 1.2131224647240835e-05 1.2440759183649986e-05 1.3125671135488232e-05 8.807151446835984e-05 9.508777531559676e-06 9.728069680762061e-06 1.0171187589051065e-05 1.0808743050722022e-05 1.1824266081624616e-05 2.3140053253446234e-05 1.9903025820294664e-07 6.259267911039308e-07 2.6940664136757717e-05 2.6353706009526935e-08 8.718937945576637e-10 1.7204177101439204e-09 5.496159612879538e-06 1.579691152445354e-08 3.3439520479352115e-06 1.963966860654636e-05 3.0473476990143294e-05 3.799731551824576e-05 4.869728978815451e-05 6.574045255514671e-05 8.910787458482988e-05 0.00012774452009503724 0.00019101977039467 0.0002929193801785906 0.0004121642854545189 0.000521097605191559 0.0007561210157804458 0.0011846637372169278 0.0024194734776815307 0.00560299900066989 0.013471375327333945 0.019118145128844726 0.02126616211622215 0.01816955581521698 1.3503333658584177e-11 7.785270773756259e-06 1.041509999374594e-05 1.1486428685923317e-05 1.2055143938640176e-05 1.295138052486899e-05 9.345251717759387e-05 3.018538742604958e-05 2.3011371468031428e-05 2.5453388437195984e-05 2.9759249107674505e-05 3.141795338693309e-05 3.233584233029669e-05 8.230682039824814e-06 1.427739706242852e-06 4.722529920906018e-05 5.304293510453014e-06 5.269099111906744e-06 5.270635725410646e-06 1.0754663898298177e-05 0.0004496976812850429 0.0003972141049097221 0.0003230941673959397 0.0002882478116020413 0.0002600917776133203 0.00022803654174845999 0.00024921909401385585 2.4180323658100614e-05 1.4377877852667075e-05 1.939335209074614e-05 2.22697513176784e-05 3.8985186906368245e-05 0.000579606434543026 0.0007798970485155931 0.0012591907015029758 0.002511962444643443 0.005533880718555747 0.013501207324649496 0.020372182219611824 0.02285255976293533 0.01931718361926508 1.1318701036358298e-11 6.728245076095283e-06 9.595020569006254e-06 1.095753589208186e-05 1.175277698182304e-05 1.28180181570529e-05 0.0001019919808803764 2.06170950720054e-05 1.605362297376735e-05 1.6965817180254147e-05 1.6257680012854694e-05 2.7154094860061173e-05 3.517714936895908e-05 1.9084717711247986e-05 5.025064233428747e-06 5.344040894406732e-06 6.007078617134279e-06 6.980167285127737e-06 8.378997924519312e-06 1.0300027453876591e-05 1.7781852403975534e-05 7.788616840493804e-05 0.00014123451698481274 0.00019447272804096026 0.00023922222177795693 0.0002624251032773902 0.0002962200206602247 2.2741256396260757e-05 1.720967334537359e-08 9.548749525369015e-09 1.2870897821819338e-08 4.227269970739464e-06 0.0006832096034307266 0.0008908072884347053 0.0013894901778651373 0.002705293556622482 0.005655495047083515 0.013652797437622039 0.02146767869023096 0.024299760609812676 0.020420003440393603 1.0007283522184827e-11 6.073506579901852e-06 9.004032849853782e-06 1.055924658604516e-05 1.1506112314196713e-05 1.2749858717193159e-05 0.00011071235757852539 1.0294641513761571e-05 1.5864994363979452e-08 1.3060272646873905e-08 1.3487798107493886e-08 3.6801321024518174e-06 4.01177517070551e-05 2.571365434944053e-05 1.5762473538766873e-05 1.1897871742286345e-05 1.2472299371706231e-05 1.3919287651600166e-05 1.553382141535385e-05 2.051823046890265e-05 2.9694524865095322e-05 1.098258233791591e-05 1.734055545630543e-05 2.0920068098307154e-05 3.837264328085467e-05 0.0002866843272112812 0.0003296952938956381 2.3767671905103585e-05 1.3379135875881005e-08 6.170291770116075e-12 4.2411633489743187e-10 4.205523473359615e-06 0.0008329966255603723 0.0010620517276151065 0.0016033898475646513 0.0029976771260121545 0.0059465904876266915 0.013943239266067872 0.022465425874320398 0.025611597785968044 0.021477205816097078 9.151644504039357e-12 5.612920162008245e-06 8.557797970086778e-06 1.0230514580730464e-05 1.1290653912904728e-05 1.2711132475480605e-05 0.00011987428908393588 1.3236688786245621e-05 6.3545381400209804e-09 6.589584670514683e-12 5.740370354624956e-10 3.66303392199604e-06 4.779897682827755e-05 3.477223908460555e-05 2.51942950962199e-05 2.5017609875406532e-05 2.6893222175793288e-05 3.05543276389684e-05 3.2327792112283254e-05 3.3363224691531825e-05 2.8678170439153627e-05 2.390583129418775e-08 1.024776517538648e-08 1.4478874520104818e-08 4.477120380701775e-06 0.00032398039870906774 0.0003729250992857605 2.382912622128232e-05 1.4838412160129227e-08 4.953549299331052e-10 8.782208884212477e-10 4.202060298346825e-06 0.0010404501217657373 0.0012982032387033353 0.0018932892188359975 0.003386408477899515 0.006373168769950414 0.014347270660753747 0.02338247987947777 0.026789557530204795 0.02248784649906936 8.517273936357107e-12 5.250039331270493e-06 8.176139178896702e-06 9.923876380369433e-06 1.1068622618705422e-05 1.2647566479554524e-05 0.00012784690263182633 1.533008774276661e-05 9.328318780887762e-09 7.279848102376842e-10 1.2272037721856406e-09 3.663617636470144e-06 5.9255292739289265e-05 4.458861997526658e-05 2.3658624699701798e-05 2.3445529469803043e-05 2.706537252409574e-05 2.9082389889964715e-05 4.8394262722054226e-05 3.617772435889758e-05 3.338233703521383e-05 2.235911265348907e-08 1.02291309081665e-11 5.450509772509671e-10 4.453894371510449e-06 0.0003729362732284543 0.00042077904189332017 3.934791591582602e-05 4.5912835722683795e-06 4.5692462337893895e-06 4.566517053432887e-06 8.75554560531601e-06 0.001333492860915086 0.0016163365993532577 0.0022567211700585425 0.0038509534455756656 0.00690183523451597 0.014818478963592428 0.024208509917140995 0.027831578221756186 0.023449667212967158 7.98045130748848e-12 4.929895445593698e-06 7.811408298030897e-06 9.601535248221545e-06 1.0800623457534781e-05 1.2482975292895506e-05 0.00012073560986246069 3.264974215595239e-05 4.7947030232905065e-06 4.7777021025818416e-06 4.7752747356443636e-06 8.409033681033337e-06 7.516137321233524e-05 5.647804035853717e-05 1.3606908443213412e-05 2.210304120356776e-08 2.1338336619824085e-08 2.656790083717668e-08 5.0309606762266455e-06 3.9622901340800216e-05 2.306859747185097e-05 1.6349526390695964e-08 6.243565752956229e-10 1.1076237873162333e-09 4.452775289781102e-06 0.00044944646137015296 0.0004725136821508281 0.0005190468100394396 0.0005973667457949479 0.0006977606047491941 0.0008325061746969098 0.0011040941751248392 0.0018207916882336545 0.0020328556910910716 0.00268745751327585 0.004370420390917597 0.007501297532910634 0.0153153579430552 0.02492379131464929 0.028734108954512706 0.02435896617129139 7.487836651176113e-12 4.630125171922445e-06 7.443694822090534e-06 9.241555787297965e-06 1.0474034178882e-05 1.2101235879159065e-05 0.00010809902024161154 0.0001191498346292937 0.00014391733034686504 0.00019312192647710102 0.00031037023651443214 0.0013371346900522352 8.914568149679224e-05 7.498223773077675e-05 1.9246048703319493e-05 1.2005044192506708e-08 1.2207714211620944e-11 7.068180672271426e-10 4.992541865871546e-06 4.3414575360714254e-05 3.911621042432373e-05 5.010463888078119e-06 4.990970121900148e-06 4.990926382080999e-06 9.436373640196983e-06 0.0006020521466816347 0.0006291962745166569 0.0006712574861793926 0.0007697199802823544 0.0008979234430888004 0.0010265569204367443 0.0011732517009315072 0.0018581195929590112 0.0024051379622560226 0.0031558020741020263 0.004930240254176558 0.008150867264328175 0.015812143280420136 0.025513010485525733 0.029494659456631496 0.025210899846068134 7.034998654100114e-12 4.3539178863751295e-06 7.077950023595309e-06 8.855852180226356e-06 1.007571433910409e-05 1.1655535071228467e-05 7.194626867428938e-05 0.00010737436175983702 0.00013620401063472177 0.00018825785214989066 0.0003029054086769163 0.0011338575693418571 0.0005874608834899738 0.0001464905829820028 2.4533829557822057e-05 1.972245681244283e-08 5.380124719532353e-10 1.1908052763783665e-09 4.9928325716470726e-06 4.809214391079881e-05 5.37259204965757e-05 6.7261833281555e-05 9.115681292175842e-05 0.000135777167181439 0.00028648353176223876 0.0009791721843314392 2.083976459580794e-05 1.9254045736277337e-05 2.2961085553410414e-05 2.2972297683456125e-05 3.988567696611278e-05 0.0012914226376910868 0.0018785611046209145 0.00270922532281324 0.003641477000353437 0.005530219367252526 0.00884131624481682 0.01629829457503838 0.02596934137532033 0.030113028443222393 0.026000304594626513 6.6519513357785e-12 4.123153202129488e-06 6.751404648346406e-06 8.4725103511773e-06 9.657955832504748e-06 1.1111172092566422e-05 5.186473543201697e-05 8.945289581552266e-05 0.000129042649589539 0.00018642749587234364 0.000295906596680017 0.0008175673658124126 0.0008366851776203977 0.0004460342189325202 5.105119596751718e-05 4.5491819241127075e-06 4.511369967567884e-06 4.506467667561993e-06 9.482635999555384e-06 6.085205003051309e-05 6.673161637724195e-05 8.292022139775526e-05 0.00011173519776806039 0.00015911561057277982 0.000281364748525939 0.0010299261438768458 2.299673612081677e-05 1.7743739750525196e-08 1.1399043512067813e-08 1.2668780214477469e-08 4.546316602940236e-06 0.0014927190154644262 0.002117090847145311 0.0030536190898115692 0.004173212303682229 0.006179705508330857 0.009569297246382724 0.016767723838791104 0.026291203021559666 0.030591152875668243 0.02672205436272551 6.411237194772252e-12 3.986316417189183e-06 6.5157716456378775e-06 8.168758124019971e-06 9.260104693484772e-06 1.060088205940404e-05 3.754265479092979e-05 7.388514568033157e-05 0.00011855581582814708 0.00018754772886234788 0.00032420618010005754 0.0006237332944766981 0.0008123158786930619 0.0006435889389231339 0.000675847816981918 0.0007180973327095378 0.0008071325105764969 0.0010264663820639258 0.001634959064534643 0.0012435025323964573 0.0010322094425017053 0.0010713146974686964 0.0012666717777250237 0.0014793365075793843 0.0013580529355887024 0.0013928951326110622 3.0506937867221858e-05 1.5151365083381945e-08 6.699610835527611e-12 4.035418151701731e-10 4.522671565913503e-06 0.0017767343615215931 0.002472509621196316 0.003514535259612338 0.004779083964605034 0.006886994555822731 0.010323459299870122 0.017209031870036102 0.02647678352824753 0.03093229656706324 0.027371784077171 6.388859371538771e-12 3.991074504975215e-06 6.5224456581730775e-06 7.974666466962083e-06 8.968761061456905e-06 1.0151094086736437e-05 2.678202518669782e-05 5.5960539085019374e-05 0.0001060934017004352 0.00018573240808319335 2.3349117826614757e-05 2.3040423236401244e-05 3.036809430182144e-05 3.08982333821878e-05 5.663177697907271e-05 0.0007701855220085598 0.0008588035267796401 0.0010986278155449016 0.0017376557265622835 0.0025741252687632764 1.7166401174512716e-05 1.5530439466613726e-05 2.1169083485174144e-05 2.6161146679965915e-05 5.053566507334855e-05 0.0015039874139378918 3.409726873163402e-05 1.782496940617464e-08 3.9041137468873423e-10 7.405485846556896e-10 4.51466118357438e-06 0.0021726343445838173 0.002949910977076348 0.0040843101016476025 0.005465865777800336 0.007638456200300028 0.011078385549943812 0.017600061610053848 0.026521692617961504 0.031140119554796692 0.02794617164218619 6.6154678372212444e-12 4.151546523178527e-06 7.385716416141772e-06 1.297504494948326e-05 1.8333091025500792e-05 2.3053205940614863e-05 3.3404031796145334e-05 5.0004768649172805e-05 7.783202076560288e-05 0.00018029033391777185 2.0722025556768537e-05 2.277422410432375e-08 1.9309593029664713e-08 2.334905828689851e-08 4.541342822844284e-06 0.0009041736988002873 0.0009989395010479708 0.0012576503390175457 0.0019575461495799995 0.003442275808275527 1.728691172653548e-05 1.0520516553869411e-08 8.97487897695668e-09 1.4228195758465157e-08 4.852633641511528e-06 0.0016354458967195707 4.444553675754523e-05 4.826651419249133e-06 4.793691597164037e-06 4.768677729978886e-06 9.209558576913386e-06 0.00276350550368664 0.0035919840651688004 0.0047594045478883676 0.00621188748150755 0.008401861356361852 0.011793769754738425 0.017911913135156016 0.02642019894603565 0.031218241591047656 0.028443474145036604 7.099909583174567e-12 4.473564373456391e-06 1.1764940708461816e-05 3.740038598638686e-05 2.7371416957586225e-05 2.985587481428199e-05 3.065431252205397e-05 4.818471027121203e-05 8.560440443717543e-05 0.0001754830199631282 2.427506612085902e-05 1.4481949991861803e-08 1.0512139431760223e-11 4.99436132806947e-10 4.50197891768495e-06 0.0011692753250195803 0.001279188324511819 0.001556468870653222 0.0023072111237439543 0.004231472029779897 2.1704743695426508e-05 8.330501566055181e-09 3.769343476446593e-12 4.4106486521697396e-10 4.821942521310808e-06 0.0017949400672028924 0.0019800943484862875 0.0024014510747254994 0.003108780768859047 0.004324878698695673 0.007136424309272312 0.00397922392109477 0.00454330062080735 0.00557336183288052 0.00699886483689984 0.009139259473405586 0.012424943643738254 0.018114566953255525 0.026167987254038357 0.03116992856191906 0.028864014132916706 7.635046941193914e-12 4.806221190045002e-06 1.204429970106118e-05 5.307395460421402e-06 1.9330542514102855e-08 2.0870863019024166e-08 2.3879984377515647e-08 5.469774029264274e-06 9.72239365291974e-05 0.00019473324505086504 2.5153536903345948e-05 1.6645591790751377e-08 6.369419487014059e-10 1.0589633634370526e-09 4.48848073208479e-06 0.0017347472808710378 0.0018367537224195096 0.002077065133831355 0.0027640707120768163 0.004912892294948771 2.415045970954566e-05 1.0771418887236923e-08 3.159037012713409e-10 7.161462012228452e-10 4.8127055621061935e-06 0.0022284411595009483 0.0024089907190014844 0.002875693320033467 0.003643061476474184 0.004864534805276734 0.007320155622611602 0.00736495501694489 0.006719272128278456 0.006960989231642293 0.007984741400356557 0.009880933188886958 0.012952093426859466 0.0181856288010218 0.025762229994513004 0.030996908728411002 0.029210466217083154 7.970457196522526e-12 4.987078825576435e-06 1.2777841044510111e-05 9.291584995706873e-06 3.0198452584280326e-09 7.477579037546815e-12 7.482148506448164e-10 5.438380289817982e-06 0.00011270926086842131 0.0002107667638443346 4.258520219582288e-05 5.334325807341934e-06 5.311205806810205e-06 5.3094470102864754e-06 9.731108640262668e-06 0.004089503218421294 0.003861287382105633 0.0035492863812895178 0.0036720199614439938 0.005251066108142294 4.068910659646139e-05 4.441738773235079e-06 4.401774196055804e-06 4.372270737260655e-06 8.937513113217845e-06 0.009754738018086278 0.00990615284150