# vtk DataFile Version 3.0
vtk output
ASCII
DATASET RECTILINEAR_GRID
DIMENSIONS 41 41 1
X_COORDINATES 41 double
0 1 2 3 4 5 6 7 8 9 10 11 12 13 14 15 16 17 18 19 20 21 22 23 24 25 26 27 28 29 30 31 32 33 34 35 36 37 38 39 40 
Y_COORDINATES 41 double
0 1 2 3 4 5 6 7 8 9 10 11 12 13 14 15 16 17 18 19 20 21 22 23 24 25 26 27 28 29 30 31 32 33 34 35 36 37 38 39 40 
Z_COORDINATES 1 double
0
POINT_DATA 1681
FIELD FieldData 1
Concentracao 1 1681 double
0.0 1.1540594887557322e-57 1.602048488515015e-51 1.5197546745450572e-45 7.717303355373207e-40 1.7103324089497315e-34 9.07400251103695e-34 2.9088144164726675e-33 7.081328319639542e-33 1.4691061115376924e-32 1.3379781179269294e-28 6.799443523674193e-23 2.982954987597964e-17 8.352015489362917e-12 8.267481437414223e-12 8.263450863337787e-12 8.263857812720826e-12 7.716213716254327e-12 7.042079604004248e-12 5.130613962942879e-12 4.221445217653906e-12 3.639036035587018e-12 3.3233315919405933e-12 3.20640636000985e-12 3.444497571904975e-12 4.069021053202909e-12 5.364434180317677e-12 7.455666045583922e-12 1.1946883205477708e-11 2.1382491725951385e-11 4.1331385981493126e-11 8.908051474135657e-11 2.2143037248368935e-10 6.148444034254305e-10 1.5697069154481658e-09 3.3020844147672042e-09 5.474291036633654e-09 7.104297818527498e-09 7.4086017133613806e-09 6.662561811620017e-09 5.845975445981646e-09 1.3367945846473266e-57 1.442575515004154e-51 2.0025622126922573e-45 1.899694862935996e-39 9.646636911519865e-34 2.137917187340184e-28 1.1342512212798698e-27 3.6360208196066e-27 8.851667201784903e-27 1.8363840946644564e-26 1.6724739853867796e-22 8.499311111561707e-17 3.728696717452443e-11 1.0440027651128611e-05 1.0334360064249217e-05 1.0329321842623098e-05 1.0329830513703201e-05 9.645274861531625e-06 8.80260654219859e-06 6.413272550828132e-06 5.2768107435126e-06 4.548798653219147e-06 4.154167793886464e-06 4.008011134837553e-06 4.305625409378791e-06 5.08628038552469e-06 6.705548079781008e-06 9.319590011093935e-06 1.4933615949999927e-05 2.6728136029545076e-05 5.166427380825239e-05 0.00011135073243458198 0.0002767881869908102 0.0007685561191261915 0.001962135213751631 0.00412760882054342 0.006842869270083104 0.008880379377457191 0.009260759550303439 0.008328208925006448 0.007307475153452504 2.5131411859211375e-51 2.229290025385506e-45 1.8848346497053484e-39 1.4339276613559668e-33 7.055903303707037e-28 1.658112698651258e-22 6.303331536986045e-22 1.5688658563924124e-21 3.0871149017852806e-21 5.2078514013858674e-21 8.55278100781914e-21 4.96400599741391e-16 2.2572355206480645e-10 8.548771411724845e-05 4.430067264860864e-06 8.047921809937512e-06 1.2940733020954948e-05 4.04494764767423e-05 8.80372677568471e-06 7.968410865460958e-06 7.066414496111515e-06 6.479170720004322e-06 6.088158912364908e-06 5.966415981747444e-06 1.3610037358634327e-05 1.926148402609272e-05 2.5000913408220402e-05 3.5727205234636644e-05 5.405903265462005e-05 7.881640373912031e-05 0.00011208640899454191 0.000205895919648756 0.000543587304799056 0.0015730444816319392 0.003983018165263909 0.00809541854195296 0.012958127672782175 0.016419248630339812 0.016891764611489005 0.01505742989184398 0.013176623430093369 2.6123116421542732e-45 2.29785278597179e-39 1.571896695729107e-33 1.0297028067565239e-27 4.997147157414238e-22 1.2844531364531072e-16 3.2906999326660176e-16 6.216146653841209e-16 9.809545673455774e-16 1.3824298388238546e-15 1.5399975191521158e-15 2.1636344176661392e-15 2.768337490154635e-10 6.310933351298224e-05 7.978095702178967e-08 2.1723656229655173e-09 5.643551746646846e-09 4.431531046053325e-06 8.804162211128941e-06 8.272419559257374e-06 7.802119024075825e-06 7.389614431710595e-06 7.083794624382692e-06 6.94767975866207e-06 9.31963516298198e-05 3.350603069998639e-05 4.253752908393145e-06 7.387095821325401e-06 9.5902467658273e-06 2.2680974084451957e-05 0.00017812874503486136 0.00034447657753501355 0.0010147795538396713 0.0028740067411774724 0.006776597744548446 0.012664732811805522 0.018951916471310778 0.023058752983904696 0.023263479359418707 0.0204634790028147 0.01779552173818177 1.3970498333987537e-39 1.266166122178524e-33 8.483478246344912e-28 5.5173266446163645e-22 2.9137402337299465e-16 9.092692831077881e-11 1.4041681825042136e-10 1.985339560585442e-10 2.564558904876502e-10 3.284825873762274e-10 2.666788046284315e-10 1.3893191322674152e-10 3.760726090866538e-10 6.31673482215209e-05 7.705957556159717e-08 4.3879284209024045e-11 4.834632789614816e-10 4.414788800610323e-06 9.041125200980705e-06 8.763905836287658e-06 8.537005724751473e-06 8.392343978360868e-06 8.429209769600599e-06 9.716544472538676e-06 0.00019069144990195648 2.4587994956131065e-05 1.0820643006770371e-08 1.4091485519868616e-09 2.523175968493599e-09 4.06365079651576e-06 0.000603074341041267 0.0009950894706684265 0.002455205509925659 0.0059011090691607 0.01170184788126966 0.018880371575188494 0.025454489736267072 0.029204876797660064 0.028659849470447373 0.024848072117326377 0.02135288948741825 3.2179687251438572e-34 3.0571696871236063e-28 2.2044877150044175e-22 1.5902880768967035e-16 1.0472129582185214e-10 5.121617487008588e-05 3.3315358658259764e-05 3.8987101669723596e-05 4.2149315080966024e-05 7.801578491408184e-05 1.991957633599268e-09 9.476602377018016e-10 6.266637223520314e-10 5.703592519774681e-05 6.804650649171709e-08 6.365387660126812e-10 9.625041191350407e-10 4.3444231615124455e-06 0.002793224442374116 0.0024880787273653714 0.002075992083284405 0.0016248586059220596 0.001195491184438741 0.0008324305631029762 0.0007587611286973794 2.6218108371673664e-05 1.0825481423539369e-08 2.3228317432256096e-12 2.6296376353637273e-10 4.031751146625728e-06 0.002835943785018663 0.004061101678410252 0.007399535359434078 0.013524021158955244 0.0211820413907132 0.028193389160462566 0.03316975430104514 0.035138213163032575 0.03352121102936228 0.028406935775121375 0.024064200187193123 2.1429131593931176e-33 1.856120995258887e-27 9.583372244842704e-22 4.662730578308002e-16 1.8794467446942044e-10 4.494706664272633e-05 6.594499242134055e-08 3.349437789063757e-08 4.2017119479792555e-08 5.558106409323532e-06 2.102252733452358e-09 1.1405050094228752e-09 8.724972005263344e-10 7.556857202865702e-05 5.474162026899017e-06 5.4068887458657e-06 5.408365490989595e-06 1.1316955482054176e-05 3.266673381000351e-05 4.4344511622406524e-05 0.0005250640893707966 0.001070396209103033 0.0013079218948915455 0.0012515011576260686 0.0012150098606380831 2.590543495462834e-05 1.1227734295798036e-08 2.6629699122674083e-10 4.6248792083712323e-10 3.920659906195381e-06 0.009341056917145107 0.012435527732508944 0.020242259580023295 0.02951578769416759 0.036097924185828544 0.040090583731824274 0.04126384692385203 0.04112131413488662 0.03719590244879737 0.031201370954152857 0.026153522646088823 9.200551193677663e-33 7.364371764128239e-27 2.7225994798026752e-21 9.848337838751307e-16 2.833823537242995e-10 4.976438578440443e-05 5.2576478538526535e-08 4.1183209739248584e-11 6.851672847089411e-10 5.488875491316509e-06 2.2323171887253363e-09 1.366226598143446e-09 9.693131627473092e-10 2.6867493734355474e-09 2.7700152958150357e-09 2.8179953124547184e-09 3.0184527889754953e-09 3.089350553075913e-09 1.2929440056819532e-06 1.5340435053335673e-06 7.4493736463738e-05 0.0003339383415383139 0.0009438048102843008 0.0012872459578929353 0.001484240808803611 3.938148644153861e-05 4.046535402682372e-06 4.023334854651523e-06 4.007909148285949e-06 7.6048935900058645e-06 0.020775264970820318 0.02338006453861426 1.3654196344984542e-05 1.0726659649635186e-05 1.1412540260198534e-05 1.1103429139136677e-05 1.741776847690127e-05 0.042254115080120766 0.03945122241947222 0.032834440468989944 0.0277968150192301 4.578773924685317e-28 2.9740714826443076e-22 7.692945211438165e-21 1.7458075232131728e-15 3.872745772779071e-10 5.272186016827962e-05 6.227892069036203e-08 7.24374398418347e-10 1.3275461829629276e-09 5.490084865766634e-06 2.382661915598997e-09 1.6016703098283011e-09 1.2561712243970166e-09 1.948881957784302e-09 2.1208240141097e-09 9.016994380861493e-09 7.900993152431708e-05 5.456198649090677e-06 3.2821354343958874e-06 2.735972236604223e-06 1.87756285002576e-05 0.0003714394731837981 0.0007549742441408547 0.0012096653751919597 0.0015841925012920132 0.0017753157115727761 0.0021212375191911313 0.0026617299331348353 0.003584499980889211 0.005763700214843246 0.019237917687274557 0.031137630955610028 7.011313551666187e-06 1.866376802549225e-09 1.5102328446097455e-09 1.6069827703291804e-09 2.4392426049149555e-06 0.04301774053978766 0.039947490821437 0.0337215302046981 0.029149939980889307 2.083546395118528e-22 1.4836289633078878e-16 6.641460477884123e-16 3.780469073471666e-15 5.033367655521071e-10 8.842336011609367e-05 5.865096156124493e-06 5.767806493147792e-06 5.769052662075292e-06 1.1259119282415967e-05 2.9369301414820028e-09 2.192654730498807e-09 1.763341053386951e-09 1.9100786189463242e-09 2.0978117857677177e-09 1.774383121910131e-08 5.450877021306982e-05 4.913260297650034e-08 4.807308910047854e-10 9.36582662596233e-10 3.0193793411574945e-06 0.0004558259456991998 0.0007945073305514326 0.0011987417859198105 0.0015652615997319961 0.001881370969038521 0.002246355837791511 0.0027787375072786257 0.003707763020143465 0.005689872188507499 0.015702838079316633 0.032322208357964295 9.572827530055242e-06 9.351678480351788e-10 2.0504941191130114e-13 7.240712344106181e-11 2.2119046632924585e-06 0.04298305456620755 0.03969247387297371 0.033914781970050926 0.030271986342002403 7.202535687489376e-17 5.75008111416638e-11 2.858586822492832e-10 3.7082304450838633e-10 6.164746570075102e-10 2.297978240595197e-09 2.4662505566814e-09 2.5345696894823627e-09 2.6729102861269297e-09 3.082848385452768e-09 3.712936646396493e-08 4.818126849521531e-08 4.897775804070573e-08 4.3408651722303574e-08 4.1183063305776435e-08 7.032184993874647e-08 5.35624969696625e-05 4.513523370812425e-08 1.700068446887366e-11 2.3960080611564765e-10 3.0109782773212816e-06 0.0006334508357492728 0.0009904757280409765 0.0014314697131569008 0.0018441352784466165 0.002259833274052748 0.0027275591208415716 0.003238171965997223 0.0038333506980383694 0.005730946964236035 0.013806239676686498 0.031623280051185323 1.1341611842424905e-05 1.4757226092659105e-09 8.055903218985771e-11 1.1354814707556497e-10 1.987817210521927e-06 0.04214561055483719 0.03882667362375346 0.0337290724522364 0.031176545179075244 1.6363015733388827e-11 1.5362095878223827e-05 0.00011238741876270631 8.548595910174059e-05 8.76127546854004e-05 8.369004497354906e-05 8.896881278769597e-05 4.949733782601806e-09 3.995553159598278e-09 5.109029607676372e-09 3.921265767968876e-08 1.0867475085168004e-07 1.557790127016723e-07 1.7330158229185951e-07 1.4184066628122684e-07 1.6919832991029014e-07 4.999945793598116e-05 4.202693579149636e-08 4.977215810190356e-10 6.893365464518782e-10 3.0036319480124766e-06 0.0010540092894669683 0.0016163570678950426 0.0001392129294926658 0.00012954432841978252 0.0001324394868348039 0.00013429103195784038 0.00014006928063568693 0.0043950567296444035 0.006035968766872456 0.013204250642327959 0.02916741182836503 2.3046005307356096e-05 2.996991359795358e-06 2.696243597521338e-06 2.0754974916704462e-06 1.935667284663867e-06 0.04068045308282341 0.03737680134887061 0.033296214204626175 0.03183609960867545 2.144134947230367e-11 1.5155782792658029e-05 5.26861639942222e-06 1.3066202415483626e-07 1.3389766334239096e-07 1.2011046303751604e-07 5.863649233600341e-06 5.1781618513515225e-09 7.070337032310187e-05 4.542506074463023e-05 4.528190320353665e-05 4.38209946030753e-05 6.608265003613307e-05 2.3824561187527826e-07 2.5612855959877047e-07 3.017039901448191e-07 6.872412403284319e-05 5.545967061247128e-06 5.499961940293307e-06 5.500305098820552e-06 8.482960365591084e-06 0.0022388183893401648 0.003065377179734089 1.2935612220191627e-05 3.3143585770966105e-07 3.215857657068481e-07 3.129075243538966e-07 3.87959343689085e-06 0.00565763361176346 0.007339960529773918 0.013175446345203798 0.02714191142680664 0.02928707728195805 0.03341685374264032 0.03955611442435774 0.04502698081261658 0.006227878011057452 0.037792832563787696 0.03551872472510732 0.032654420115842686 0.03219184353305475 2.3220616441476583e-11 1.5147077395744884e-05 1.199229794141134e-05 4.332381104898591e-09 9.028191730277668e-11 7.366525124769017e-10 5.76952381774177e-06 5.2687343707535716e-09 1.1151485263009989e-05 3.927821804074517e-08 3.4140753629788635e-08 3.328413800817979e-08 5.660792042455242e-06 3.913537363512305e-07 4.494111552760065e-07 4.786638477305822e-07 6.514928735545149e-07 9.50561471829433e-07 1.3831026067217372e-06 2.00764522701363e-06 3.0737760418295196e-06 0.0008017897053503863 0.0041105283645993 1.4816409362946747e-05 4.488110270948439e-09 4.2832910314239776e-10 5.723800889690039e-10 3.5246163812555555e-06 0.008211081909736082 0.009969923224514732 0.014697619583691356 0.02356195465510672 0.02893373599046953 0.03367748072419476 0.040116123745921155 0.045430804329047315 0.011992104264639251 0.0337348602017435 0.03339137140180532 0.031740913782170185 0.03217030543343167 2.3868473870716965e-11 1.514817630567748e-05 1.8848165550532714e-05 1.0250200829722545e-08 6.126457337249679e-10 1.1805363639309886e-09 5.771060020416815e-06 5.338901072827436e-09 1.3115349065025539e-05 3.629499336968527e-09 1.2802406475028329e-11 5.350365622462253e-10 5.620829023840381e-06 7.123645518297561e-07 8.392943071595314e-07 4.766595355999482e-05 4.2957706467747775e-05 3.0496986367232498e-05 2.6764349964053366e-05 4.758403213809293e-05 4.678809259323025e-06 0.0004801795013651235 0.004366576938859081 1.720338294428946e-05 5.388788334048544e-09 2.23276732238231e-10 3.4436376085190653e-10 3.4102677941537086e-06 0.014020955066656094 0.015572065940125559 0.01889216013741324 0.02480177026395827 0.030187037322095163 0.035546675610231455 0.041676175791457166 0.04624608274397064 0.02139686797655564 0.029607247099647672 0.030996153771514868 0.030515695566285247 0.03172039457260992 2.3071536175443162e-11 1.414806035163055e-05 5.5417035864745576e-05 5.357289163679349e-06 5.329090693130601e-06 5.326036478074444e-06 9.35778600759892e-06 5.446701263720098e-09 1.264375507997947e-05 4.2698230431345525e-09 3.310259104716783e-10 8.135347019828315e-10 5.621550700682677e-06 1.342230307616307e-06 1.5917392139899634e-06 2.4848639603254986e-05 3.1271846131790823e-08 1.4483566345794712e-08 1.2224457927949314e-08 5.514660815917284e-06 1.1485903337387657e-05 0.0004908153448320639 0.004130404321401108 2.038446076527769e-05 4.33556344874529e-06 4.295641280592129e-06 4.2371304331788555e-06 7.063145050462174e-06 0.02984658927140542 0.02960190295303589 0.02945333735685095 0.031537849935736946 0.03480832458834614 0.03901748178263757 0.044055234364497015 0.047462952574954864 0.028407200778995615 0.02724704025516513 0.028513515767951834 0.0289832022768658 0.030854508142794036 2.1441608981843826e-11 1.2919973045524209e-05 1.2921513611834753e-05 1.2922104720840248e-05 1.2935249092789752e-05 0.0002629806842995347 0.0023042533927148507 7.910117268460976e-06 2.1493541274744785e-05 3.651544834657746e-06 3.645422742219179e-06 3.6447454257509124e-06 9.228928047134882e-06 2.5179260534680374e-06 3.4888827714770223e-06 2.6934871485959203e-05 1.1763893863734416e-08 5.929121713132396e-12 4.0362127859335813e-10 5.498413599327765e-06 4.939776403139614e-05 0.0005236384827791602 0.0038769595086029234 0.0045020633348820775 0.005729727316700427 0.007763132506852148 0.01098391522472573 0.015827782374706084 0.023802851617764353 0.03445162571337692 0.0388311194671102 0.04063470246602739 0.04175459151111583 0.04383180663347755 0.047053704451961116 0.049019271635050946 0.03347856000491625 0.026525140858660947 0.0262390186542617 0.027223011322616023 0.029640920334479848 1.6906273812661997e-11 9.440516198550655e-06 1.1716191755708911e-05 1.2156406789526396e-05 1.2481096971639392e-05 0.0002609573981086262 0.0030416197361378978 6.866272719933895e-05 7.69332662140688e-05 9.369759630958466e-05 0.00011837917312082316 0.00016795700047230976 0.002253896659011531 5.2591588329628996e-06 6.271315417729197e-06 2.695365039941174e-05 1.224489904156097e-08 3.5728812765184347e-10 6.876122349251046e-10 5.494434659218328e-06 0.000576008244146095 0.0009704494343565266 0.0028943543107447984 0.004312674861208677 0.0057346598206610986 0.008022671361526724 0.01198161071431737 0.017883389887411616 0.026518785880252003 0.036337064604547116 0.044438677481569946 0.04839893580299585 0.04966226317426981 0.04918055306095479 0.0505568159067525 0.05080654385596647 0.03701269899990385 0.02653595335473467 0.024276547290715735 0.02533993523576323 0.0281659816721035 1.3531365142094538e-11 7.801431710151877e-06 1.0436719951229435e-05 1.1510274598958328e-05 1.2101033367198642e-05 0.00026976752004107544 0.0032833043084491585 0.0008656200099233973 0.0005916280585872613 0.0006900695881709418 0.0008658597888626259 0.0009473822539113212 0.001675250659018773 0.00046483043656228817 6.195667550485367e-05 4.726129563798364e-05 5.279969884850821e-06 5.2612114445113675e-06 5.25665647778356e-06 1.0230241092671848e-05 0.020366555904541086 0.018357536574482053 0.015910897247952107 0.015307531954629059 0.015272088106128803 0.015895809491588583 0.020265586666957273 2.2239283682535462e-05 1.2906207445606406e-05 1.6464881282822855e-05 1.769156339538584e-05 2.8974624557847738e-05 0.05252334410359448 0.053258490042067466 0.05371200971826135 0.052446204693327454 0.03923672926741787 0.026604258791307116 0.022538012877184918 0.02341411906164232 0.02650712009631925 1.1342198004969196e-11 6.742212441052369e-06 9.614939913720705e-06 1.0980292088465283e-05 1.1813244896994297e-05 0.0002911014929790918 0.0036558784877277445 2.0435717890170107e-05 1.5992732268597577e-05 1.689174234424812e-05 1.616556992137379e-05 2.6982351659257287e-05 0.0019300891920770807 0.0011278276469444382 0.00029707939639086556 0.0003377136508962885 0.00043877722369455887 0.0006398124385174072 0.0010767887807391823 0.002005360155801751 0.0018068553143837313 0.006709247680369188 0.011393109739779339 0.01546211431160893 0.01850212763457637 0.020469159750730846 0.024527222266430025 2.0374237533129994e-05 4.439131932056353e-09 2.119556852621575e-09 2.502833674500385e-09 2.7461094885894692e-06 0.05642401270834641 0.05665739357120866 0.05637875117164979 0.05355389449310509 0.04030430166410405 0.026352351443584117 0.020898218791207835 0.021490341756861278 0.024726964118197633 1.0028062324224118e-11 6.086117425747754e-06 9.022734066484914e-06 1.058122466109432e-05 1.1600518822144312e-05 0.0003314397370018624 0.004055262518189025 1.0045893962610868e-05 7.57185959589327e-09 6.244501683027992e-09 6.1958735975142775e-09 3.6227866781202503e-06 0.002406553816308524 0.0016491770147815086 0.0010703291070023996 0.0008605949234594998 0.0010141764669210301 0.0013528040310403398 0.0019300814303932277 0.0037786781548371446 2.9421376339714653e-05 1.0636284735482989e-05 1.6419798261680305e-05 1.9433839597604564e-05 3.5113311251730194e-05 0.02291814926721313 0.027654825822623727 2.0933058924339743e-05 3.315281537043545e-09 4.830913710333725e-13 5.418560808202338e-11 2.52718270573443e-06 0.060236052836508576 0.05973095732281305 0.05824378778704784 0.05387126779940234 0.040293508117441514 0.025648896087573047 0.019273523580068955 0.019593705166014587 0.022875519040621763 9.170683968115397e-12 5.624597627960955e-06 8.575651905416109e-06 1.0252201512331445e-05 1.1462999273077224e-05 0.0003832511898764645 0.004490384515733783 1.289854104635324e-05 2.705510039660339e-09 1.4892760752454455e-12 2.2003171758002842e-10 3.5999520063248223e-06 0.0032308840343214943 0.002543457592689145 0.002055340296563955 0.002337063575752108 0.0029004049005360824 0.0038622570235860463 0.0047125531473053185 0.005738104474410745 2.8209732664897746e-05 8.107131175374323e-09 3.1018916721912553e-09 4.131627877658774e-09 3.935344552509874e-06 0.026656097575786925 0.03183429920299785 2.0522581150150942e-05 3.434805552946142e-09 7.919181118461709e-11 1.1231756754222381e-10 2.2788246683201363e-06 0.06317479075708937 0.06181023314643498 0.05905419671640442 0.05323304854009867 0.03937944415794295 0.02452316475581451 0.017639594634148225 0.017742918099349924 0.020994405820876156 8.535464906221627e-12 5.26125287179935e-06 8.194110695587165e-06 9.948234886018664e-06 1.1414878973724046e-05 0.0004326042815684907 0.004897787097699825 1.4913787693146906e-05 3.9006634065984105e-09 2.7236907584836587e-10 4.270577027571799e-10 3.575152934505957e-06 0.004636280474033022 0.0038597947239795037 2.344234367195482e-05 2.3256409992010776e-05 2.6810022086203e-05 2.8729661333768387e-05 4.771011361495539e-05 0.006724571391415638 3.275853430367387e-05 7.472705579579719e-09 1.2344557889885608e-12 1.2584736208492118e-10 3.826638805141233e-06 0.03141194117104605 0.03625244544868931 3.283465618543778e-05 3.4778273801159514e-06 3.279640009516292e-06 3.040421422672538e-06 4.6487885245573245e-06 0.06459623416928759 0.06244882967455855 0.058635194192592596 0.05168015152420932 0.037778212526089795 0.023095682160035075 0.016014656199411174 0.015956288775318156 0.019120120204825033 8.00322152517706e-12 4.94396504747154e-06 7.83830887362998e-06 9.651056373694142e-06 1.1533745591636014e-05 0.0004589721285979569 0.004726104153527578 3.185787192948339e-05 4.641776766216063e-06 4.573537918255807e-06 4.422518664654572e-06 7.270848678020575e-06 0.0068467124491931805 0.005866647721195245 1.3276047863755366e-05 8.420255917124843e-09 8.12040777026833e-09 9.693368665234277e-09 4.894589899269642e-06 0.008025447412449947 2.2545367497404092e-05 5.2666802796959196e-09 1.481613797140186e-10 2.2896952166677637e-10 3.666275972759016e-06 0.03820694282009635 0.0407134137557806 0.0445869020269169 0.05032842394169881 0.056469034198736806 0.0627287196686317 0.06938706790473716 0.06364228738138537 0.061430339728461486 0.05703524332233896 0.049378509711467206 0.035719427359353496 0.021501638752346244 0.014435081157447108 0.014252578979494676 0.017285412878248415 7.565876777050637e-12 4.6784012333350325e-06 7.556466301893426e-06 9.47696753674373e-06 1.2173585722576918e-05 0.0004367641366572119 0.004312690820218084 0.004855058867955351 0.00612363405411285 0.008792285469531522 0.015038549557752592 0.032561971491647246 0.00987928774400189 0.009322749440474837 1.8526590914737435e-05 3.913279965107133e-09 1.7864913412225221e-12 2.2052640737969905e-10 4.86076103853575e-06 0.009557367452343722 3.803966206923111e-05 4.707964169023093e-06 4.518143570044372e-06 4.199468360039104e-06 6.946796433309084e-06 0.0484848143428047 0.0506555393089017 0.053519268920357875 0.05862603872693021 0.06367313027727041 0.06755164076737417 0.07058575293379186 0.0661410030609375 0.060410159429211456 0.05473080105068948 0.046562535496357554 0.033387094015616674 0.019850724627023048 0.01293702785520598 0.012649345811454321 0.01551952240267848 7.558607198143645e-12 4.67818179401634e-06 7.844111140533022e-06 1.0343972089038507e-05 1.5100015857710701e-05 0.00040943597889578543 0.00295939821184606 0.004525598227628432 0.005994981256119365 0.00886630408455243 0.015092770832825814 0.03034631804474766 0.022600438181782295 0.01460476169149706 2.298558354429387e-05 5.848204466874148e-09 1.1968984304257077e-10 3.0787262687756284e-10 4.833877342824764e-06 0.01157755991368594 0.014148208332973148 0.02074106281419759 0.03169425701917777 0.04678930429549481 0.06525571001562971 0.06335617052459765 1.425637359649324e-05 1.4063639288812421e-05 1.5881248660915503e-05 1.4817181233846451e-05 2.3677311761538423e-05 0.07228512204728371 0.06831067444071402 0.05970115536541249 0.05217132438299864 0.04344551687601453 0.030913063442950178 0.018218881464141353 0.011549002333119363 0.011161482298327741 0.013847119500934903 1.0060135038690028e-11 6.238211214951593e-06 1.1739727971352682e-05 1.7877735328741414e-05 3.032184920628405e-05 0.00039140744330144387 0.0022765056131776916 0.00405322444956233 0.006095174102298292 0.009377719348717586 0.015535533068117736 0.026826040803776246 0.02905387390781944 0.02294281536115426 4.4731654198864374e-05 3.72785564655528e-06 3.6135526411528997e-06 3.371580835374783e-06 7.609652698391633e-06 0.017620432589687735 0.020468793899029364 0.028268319413947817 0.04027797380254533 0.05423848814606771 0.06849140857040663 0.07105330888359747 1.2798876505879496e-05 2.4679048881459017e-09 1.739112935428316e-09 1.7088179568020349e-09 2.161368661212819e-06 0.07363194413330641 0.06814517915851435 0.05841399037859836 0.0493107672613903 0.04016369457940552 0.028395764208700148 0.016662269940947452 0.0102926854072925 0.009800478969469277 0.012288216045102971 2.5209443001275242e-11 1.5697270591344743e-05 3.49680271213677e-05 6.423904701989092e-05 0.00011718361599347975 0.000506156203347374 0.001983647506774694 0.0039093109386023 0.006400078317478898 0.010591828284734683 0.018652981813587734 0.02752051311677513 0.032887426566646366 0.02919409719593497 0.030681030020159265 0.032530704545283264 0.03619634343972353 0.043512360836640215 0.05344729887236809 0.04583736027833111 0.045188641434732425 0.05084009422293302 0.05885484785343625 0.06589797768509983 0.07157007773003136 0.07372414948609199 1.656232939991328e-05 1.6535710903118026e-09 2.4388323331205324e-13 3.021234209686869e-11 1.899195626959194e-06 0.0735409900226656 0.0665539397094101 0.05592398270649083 0.04608774136602789 0.036815805381665324 0.02593797579655414 0.015231593013769426 0.009185829279613797 0.008574233438399631 0.010857467904352547 9.207999365542251e-11 5.766354361676609e-05 0.00015020225826407847 0.0003238530606689471 0.000650454027867513 0.0013663783853700444 0.0027596752623436946 0.004639011655508211 0.007472359030003127 0.012394261131825764 2.1699584561670344e-05 1.988639364674327e-05 2.5068613442902515e-05 2.6055228521066084e-05 4.7199474362933414e-05 0.03473851931096105 0.0382607098869437 0.045752606483258636 0.05502181014331759 0.05774072271482109 1.057521145793307e-05 1.1426477476580811e-05 1.446026832075429e-05 1.6372200365732047e-05 2.9678944202584272e-05 0.07495591185856573 1.765297399987682e-05 1.8021163662110553e-09 2.0114978631903365e-11 3.733187536026778e-11 1.6168310389648218e-06 0.07136698926082788 0.06340008728756569 0.05257786608581343 0.04261540426356064 0.03355686064168854 0.023649976483414856 0.013978417896905676 0.00824507188805916 0.0074878680979423564 0.009564652454822332 3.585470901464856e-10 0.00022795908978672644 0.0009283157996545082 0.0037299500859443516 0.006975745705024482 0.009493631574702352 0.011708833489535357 0.012106336248389825 0.012557704814758694 0.015248123905301487 1.9573542688087696e-05 6.761253025979667e-09 4.853386429897786e-09 5.849322674410166e-09 3.5109910967390212e-06 0.03983111224462322 0.04316865417183479 0.049991795961579176 0.05761973723491433 0.059082787900300165 7.794261141122229e-06 1.4691577676844788e-09 1.4192263111545704e-09 1.930893476654767e-09 2.3677430260363384e-06 0.07592284113022507 2.1479976048898347e-05 1.7741156294594132e-06 1.4344224845167441e-06 1.074652954759122e-06 2.0001739601653086e-06 0.06645574871520786 0.05856611515599548 0.048608090547038504 0.039140661246584184 0.030562745854355484 0.02163923056620902 0.012948598752037684 0.007486130904702433 0.0065448437453211605 0.008414788789158118 9.192346020976969e-10 0.0005790846717122494 0.0012364551148907803 3.710286426648569e-05 2.687424547200226e-05 2.9094173787991233e-05 2.9648619705862338e-05 4.6452681989415694e-05 0.01440714945934076 0.017648554128210377 2.2776789998668584e-05 4.530733438165145e-09 1.1115666344764454e-12 9.099127376084583e-11 3.223787174075926e-06 0.047461454774936955 0.05036804334994724 0.05552345427000171 0.06019333271186397 0.058294772114784066 8.446499056424868e-06 7.136113298875304e-10 1.3763487749572627e-13 3.805056021150326e-11 2.214723299955635e-06 0.07650957755242585 0.07665195408725298 0.07486192152081135 0.06980621085330632 0.06070773169868103 0.045722615637727754 0.05649877889957136 0.05165894213618494 0.04400678319262157 0.03577352918631957 0.027949657263700554 0.01997943534471785 0.012175196617391595 0.006923566146874357 0.005748033079051692 0.0074084043402309115 1.9119045279735495e-09 0.0011979689702714083 0.002047794273077557 5.272115020465593e-06 7.436801150167281e-09 7.615627420736705e-09 8.356732736883632e-09 5.1565717416944355e-06 0.017155036120444552 0.020734185859640052 2.3327154748184663e-05 4.9579690027756745e-09 1.4073527082005372e-10 1.8598255284187745e-10 2.759406561763273e-06 0.05567642211170272 0.05740672666701454 0.06006358069404359 0.061588597907154125 0.05678030856187916 8.282979932015862e-06 7.853627735516365e-10 1.3188491143541309e-11 4.04329748305976e-11 1.8962236104881362e-06 0.07544255798253217 0.07477617299388425 0.07166483522533228 0.0655947421880879 0.05660151279681605 0.04386970108795361 0.04152788087766797 0.04163795137025439 0.0380234793980653 0.032164549065848806 0.02561793682885295 0.01866336077595919 0.011668223834007752 0.006570141519674644 0.005101092914180794 0.006542077796831627 3.5331318871857278e-09 0.002207021812860628 0.003435166657649083 9.213460346244238e-06 1.2085658409502007e-09 1.1633433199699865e-12 2.2570094914245312e-10 5.07937000545204e-06 0.020726186366665785 0.024131355311863976 3.8862765676016386e-05 4.580312843489212e-06 4.353385851992158e-06 4.0595709636978856e-06 5.587013072469676e-06 0.0565242041159715 0.05766169263754009 0.05951612439664686 0.06032348539473517 0.05584600721739957 1.275822127375599e-05 1.074602695903648e-06 9.216799571660311e-07 7.769688264183035e-07 1.5052709304368437e-06 0.04759631500826631 0.04687640738422078 0.0471830232147948 0.04455967467918993 0.04075069420497899 0.035178631100387145 0.032065296408421456 0.031861550132003195 0.030947335599985155 0.027876700868894596 0.023222237758145938 0.017546481773687513 0.01139277558009872 0.0064327751322185425 0.0046099370852718735 0.0058088873695139745 5.905155323075026e-09 0.003672256729520798 0.0054733460566908304 1.2106286084257352e-05 2.1661579252101854e-09 2.1722626876640085e-10 3.849439999593589e-10 4.9754034630366335e-06 0.026002987378966048 0.02774753414135805 0.0312488674055078 0.037723846321828104 0.04614955010871804 0.055402320819