# vtk DataFile Version 3.0
vtk output
ASCII
DATASET RECTILINEAR_GRID
DIMENSIONS 41 41 1
X_COORDINATES 41 double
0 1 2 3 4 5 6 7 8 9 10 11 12 13 14 15 16 17 18 19 20 21 22 23 24 25 26 27 28 29 30 31 32 33 34 35 36 37 38 39 40 
Y_COORDINATES 41 double
0 1 2 3 4 5 6 7 8 9 10 11 12 13 14 15 16 17 18 19 20 21 22 23 24 25 26 27 28 29 30 31 32 33 34 35 36 37 38 39 40 
Z_COORDINATES 1 double
0
POINT_DATA 1681
FIELD FieldData 1
Concentracao 1 1681 double
0.0 1.1517772835165495e-57 1.598880366001555e-51 1.5167492932383687e-45 7.702042063539831e-40 1.7069501611633768e-34 9.058007683938822e-34 2.9039055253609775e-33 7.069579489678312e-33 1.4664610579805768e-32 1.3311867886555654e-28 6.768888270943245e-23 2.970547162385468e-17 8.317413730861457e-12 8.235036219467892e-12 8.231070376017707e-12 8.231478409683384e-12 7.685979944420346e-12 7.01448704703368e-12 5.110510775782869e-12 4.2049040542936194e-12 3.6247756698357815e-12 3.310286018474093e-12 3.193121932506862e-12 3.224131575612172e-12 3.3270505202580643e-12 3.432256634375558e-12 3.4376267255475737e-12 3.3627934253360805e-12 3.1644158928145906e-12 2.7472034973114306e-12 2.3511651673144997e-12 1.9392929437359405e-12 1.6271502654990392e-12 1.3722609609375295e-12 1.149156273889817e-12 9.384219792465624e-13 8.465792230698992e-13 3.0991261806164794e-12 3.291390664192634e-11 1.735140356312988e-10 1.3341510116441627e-57 1.4397227561729705e-51 1.9986020563823097e-45 1.895938133297254e-39 9.627560281466852e-34 2.133689374292584e-28 1.132251866293121e-27 3.6298847009933916e-27 8.836981153047587e-27 1.8330777750979692e-26 1.6639848170062454e-22 8.461117015508332e-17 3.713186923528998e-11 1.0396775418659336e-05 1.0293803509371084e-05 1.028884620109251e-05 1.0289356227589906e-05 9.607482616505377e-06 8.76811581841197e-06 6.388143546906056e-06 5.256134272771079e-06 4.530973181888475e-06 4.137860814083805e-06 3.991405587263803e-06 4.0301676936467905e-06 4.1588164773731005e-06 4.290324218795748e-06 4.297036843845597e-06 4.203495143413494e-06 3.955523028897114e-06 3.4340071188427853e-06 2.9389588083913574e-06 2.4241181185759927e-06 2.0339394590240644e-06 1.715327573200776e-06 1.436446491518545e-06 1.173028412480182e-06 1.058224875416597e-06 3.87391082489678e-06 4.11424162060372e-05 0.00021689271805315914 2.508171333928368e-51 2.2248815028155997e-45 1.8811073048632038e-39 1.4310920067556737e-33 7.041949957783717e-28 1.6548337163677283e-22 6.292503464922052e-22 1.5662670635007258e-21 3.0820491392105063e-21 5.198658319624058e-21 8.533832817590387e-21 4.942496235477587e-16 2.2483613260325888e-10 8.513354620821486e-05 4.539682971364242e-06 8.042678332563199e-06 1.2934594153946534e-05 4.0345633367144614e-05 8.769232846699846e-06 7.93718901027904e-06 7.038725584989345e-06 6.453776778530187e-06 6.064133660433195e-06 5.935539426485592e-06 5.986824734192621e-06 9.328706346297795e-06 9.214347041888311e-06 9.212306533207108e-06 9.142294130132234e-06 8.597640542091772e-06 7.88916521125683e-06 6.1157789620995066e-06 5.0142615292001294e-06 4.164152705635699e-06 3.511560378729937e-06 2.945250124259308e-06 2.410736659492774e-06 2.156577330451955e-06 7.3600377242033556e-06 7.799382717099343e-05 0.000425395756808041 2.6071456772380153e-45 2.2933086783515292e-39 1.5687882002304034e-33 1.0276665247618644e-27 4.987265089274525e-22 1.2819130800607299e-16 3.285296295263534e-16 6.206064706977141e-16 9.793579825808048e-16 1.3797939193924345e-15 1.5368568340899672e-15 2.157856666626472e-15 2.7593145450131495e-10 6.294696089882321e-05 2.1537683273484572e-07 6.033325124512496e-09 1.5340158191137118e-08 4.451733686796025e-06 8.769664209361657e-06 8.240002040850486e-06 7.771535044702581e-06 7.3605781582048135e-06 7.054273487537089e-06 6.849292010962266e-06 6.981826252653102e-06 3.345691021283203e-05 4.273787773311023e-06 7.3850331444076155e-06 9.590281413423002e-06 2.2656481333826378e-05 7.889947974346896e-06 7.136800679707531e-06 6.192540148302429e-06 5.439193197321687e-06 4.77870674962702e-06 4.152671036007342e-06 3.507205695296544e-06 3.1800629209245293e-06 1.0075378481849383e-05 0.00010802256376821457 0.0006217566630812742 1.3942871051216019e-39 1.2636622225604833e-33 8.466701797828287e-28 5.506415895191885e-22 2.9079781914628034e-16 9.07471167412197e-11 1.4020890218690758e-10 1.9821550883335669e-10 2.5603658031840047e-10 3.2771079885715216e-10 2.6605222101099596e-10 1.3860547672230667e-10 3.7486190197021086e-10 6.299796008097206e-05 2.0932395782728822e-07 3.236981773175702e-10 1.404789974852472e-09 4.406651947440863e-06 8.77052483366816e-06 8.462865592969735e-06 8.171952512140666e-06 7.89397503961331e-06 7.6276979895394745e-06 7.408496164946177e-06 7.317365889855481e-06 2.4576719450196365e-05 3.662424680317718e-08 4.583922349972332e-09 8.575174023518124e-09 4.076773069049304e-06 7.890579202670928e-06 7.344920496659595e-06 6.745304644104763e-06 6.169909969930924e-06 5.642625735322434e-06 5.09598430320113e-06 4.458961081214736e-06 4.102615091726476e-06 1.1813232943589074e-05 0.00012854789152705106 0.000802071809677391 3.2116050546702077e-34 3.0511240040329904e-28 2.200128247721542e-22 1.587143216243589e-16 1.045142052102949e-10 5.1114892884021106e-05 3.328716836209809e-05 3.8915630479705596e-05 4.20769816933008e-05 7.772517861100842e-05 1.9849044220407665e-09 9.443979847613129e-10 6.245450660691381e-10 5.6908037995923056e-05 1.8620542311238596e-07 1.992736732611598e-09 3.000605798822877e-09 4.408980290968187e-06 9.593049853620943e-06 9.390148466436891e-06 9.113770671110459e-06 8.773328055038035e-06 8.390545576575886e-06 8.006185911231506e-06 7.657094100604794e-06 2.627855147811692e-05 3.8597563371275904e-08 2.7604965262455688e-11 1.1097415179072517e-09 4.062009927811004e-06 7.891511415415065e-06 7.460855289209323e-06 7.0271397672611114e-06 6.623365637527276e-06 6.2671961557861216e-06 5.875515607187794e-06 5.355460267363735e-06 4.922630343247207e-06 1.2094861720862582e-05 0.00013980607486365756 0.0009651218485236995 2.1388306847915776e-33 1.8525915089654584e-27 9.565276951055161e-22 4.654025485812037e-16 1.8760139509339318e-10 4.487054094157506e-05 1.6923347168853684e-07 8.654202972694444e-08 1.0936636996961105e-07 5.658831019476344e-06 2.097198244090353e-09 1.1369433441857326e-09 8.694418734306505e-10 7.531499397509881e-05 5.58692812063922e-06 5.402273243441285e-06 5.4065234272449155e-06 1.1299664379902904e-05 1.2948401427496204e-06 1.3529779624350407e-06 2.8368808842856894e-06 4.953902656676734e-06 6.4202616503570335e-06 7.3139613711351834e-06 7.5996329869869705e-06 2.6031796126156497e-05 4.167950244460741e-08 1.1374169553611048e-09 2.1509262370580882e-09 4.063387212099153e-06 7.893612891623087e-06 7.5162109254239915e-06 7.129304374171278e-06 7.154526356645119e-06 7.4155826865709475e-06 7.810763570906576e-06 7.631972082422956e-06 7.185427292104531e-06 1.2788019886964712e-05 0.0001459553323956655 0.0011139374226677335 9.178684444425472e-33 7.347650018422365e-27 2.7174243880225724e-21 9.829560792219102e-16 2.828339934210691e-10 4.9659959136373995e-05 1.3656579869617483e-07 2.7687360852856816e-10 1.9275721195632194e-09 5.477962934362675e-06 2.2270040438803486e-09 1.3623027502576144e-09 9.65903801386912e-10 2.6773092146448372e-09 2.7611658856359096e-09 2.806273487123665e-09 3.002438042258161e-09 3.0682416062706034e-09 1.2933841128721447e-06 1.5343144297849063e-06 1.692653471847021e-06 2.441786694094611e-06 4.520937321104576e-06 6.1368354123894695e-06 7.160754247343615e-06 3.961189540960655e-05 4.126894856268876e-06 4.0756491565835816e-06 4.077016817309983e-06 8.137660956862894e-06 7.936217935681715e-06 7.565757667714829e-06 1.5238665500759168e-05 1.3016675064543233e-05 1.52392431119956e-05 1.6202994045922085e-05 2.6648515795752524e-05 7.64957480224989e-06 1.3185319443506444e-05 0.00016025736734981096 0.0012531563368247385 4.552626956360733e-28 2.9571969808656305e-22 7.67311803437868e-21 1.7424282697364596e-15 3.865126270260975e-10 5.261420648658688e-05 1.63504825658539e-07 2.1113662905348543e-09 3.6632126170569665e-09 5.481190762650653e-06 2.37710318581694e-09 1.5973663919794824e-09 1.2521333067464242e-09 1.9417547659998205e-09 2.1118273985090724e-09 2.31276526817932e-09 7.871238687685996e-05 5.546724986808842e-06 3.2833782154740382e-06 2.738966481657243e-06 1.8755948542730438e-05 2.451284439108844e-06 3.5604816730590187e-06 5.038698438397887e-06 6.546175621326034e-06 6.578727637336902e-06 6.6317060774590955e-06 6.705249276819111e-06 6.812581498637501e-06 7.014797707051192e-06 7.729077874913039e-06 7.74114974956027e-06 8.635531785586318e-06 1.3067829367837039e-08 1.2026269395501563e-08 1.4647989521999234e-08 4.336776895068761e-06 8.532530323941508e-06 1.5580411336071903e-05 0.0001809020357197633 0.0013922066669365858 2.0730600518685635e-22 1.4762220679106502e-16 6.609876305698218e-16 3.7702216234374366e-15 5.020278302107329e-10 8.808788675257987e-05 6.014397029126703e-06 5.757232925492654e-06 5.760486331901413e-06 1.1241048175959117e-05 2.752105437760524e-09 2.023218537189832e-09 1.6137758277495797e-09 1.7509821195606484e-09 1.88047661814207e-09 2.241252501095803e-09 5.4390583783757845e-05 1.4784989935376354e-07 1.5245455451976697e-09 2.934870153227093e-09 3.0359135530231557e-06 2.47061959120246e-06 3.299893106089206e-06 4.309403328558942e-06 5.2636207971008704e-06 5.77085847319166e-06 5.9219261552823035e-06 6.080620099922524e-06 6.3254898835424175e-06 6.659215027921645e-06 7.39760674158751e-06 7.854655300234531e-06 1.210422529755658e-05 7.3293832644307965e-09 7.2068835352498326e-12 9.082578099910648e-10 4.319136385089507e-06 9.929378493528312e-06 1.945117304542194e-05 0.00021551030899903648 0.0015373272093922993 7.168837616068319e-17 5.723462345378127e-11 2.8461825589989793e-10 3.694709939097543e-10 6.146426689763478e-10 2.289809087066475e-09 2.4592608064924545e-09 2.5274025546244427e-09 2.6652939244902198e-09 2.952280736376039e-09 2.9201434899855486e-09 2.501423457072406e-09 2.128399069305424e-09 1.9506988462603995e-09 1.9183078715941532e-09 2.302045500725993e-09 5.344159460474473e-05 1.3877224425630487e-07 1.5950885872405076e-10 8.682894391746577e-10 3.021256668962412e-06 2.5061505228151635e-06 3.1592908320688995e-06 3.877443759655073e-06 4.387904184980853e-06 4.697476103429624e-06 4.913281648427257e-06 5.169469985790572e-06 5.456875574871814e-06 6.152874497706253e-06 7.039278635299708e-06 7.867683099362189e-06 1.4409001864940526e-05 1.1785277432840735e-08 8.735850926259907e-10 1.6950355322538779e-09 4.319697365867507e-06 1.2016873476536504e-05 2.51041727647903e-05 0.0002655807157454947 0.0016946880300914328 1.6285328676318944e-11 1.5289160991356123e-05 0.00011185383727264538 8.521434211628491e-05 8.731527371673409e-05 8.342719464495074e-05 8.865733393860518e-05 4.934029528480494e-09 3.982847090031858e-09 4.008358039566957e-09 4.088995271222225e-09 3.9451351663243176e-09 3.5426100821643594e-09 3.058855940495582e-09 2.3648808501594027e-09 2.4600494190127975e-09 4.99006542694252e-05 1.3173334285526428e-07 1.7724684089393827e-09 2.459562534575456e-09 3.0228931379706395e-06 2.5695943859671543e-06 3.160116519812482e-06 0.00013938801273587673 0.00013008844018669628 0.00013324947384054343 0.0001354132905303987 0.00014154270568308533 5.632579484698492e-06 6.00271638115002e-06 6.844111280186022e-06 7.766013358271007e-06 2.874987215088016e-05 3.977342804788612e-06 3.9577412598090445e-06 3.9579318112168465e-06 6.237433518563911e-06 1.4977400843910442e-05 5.2680236425661645e-05 0.0003588524846533837 0.0018700205675344632 2.1343566937791405e-11 1.5087724639398689e-05 5.433885048554991e-06 3.495385979285771e-07 3.5822185072693556e-07 3.2325951708876015e-07 6.01658163070661e-06 5.164255965337337e-09 7.048574462167801e-05 4.535516764840682e-05 4.519835431302645e-05 4.3747953086076315e-05 6.589415901369088e-05 4.394344817232906e-09 3.1034984792043947e-09 2.7730893845421597e-09 6.85173113031195e-05 5.6404156333141845e-06 5.494511180531956e-06 5.495787987090328e-06 8.515380569448988e-06 2.6884962119704224e-06 3.2495404414041427e-06 1.4138453620471341e-05 1.3400515231270004e-06 1.3447777958650864e-06 1.3542007092562118e-06 5.044551480364727e-06 5.758828853794052e-06 6.07299392455044e-06 6.726436094484175e-06 7.657124589510381e-06 7.835430512532946e-06 8.26178265238139e-06 9.32319458161202e-06 1.6064601481057778e-05 0.006629958974816283 5.220780733957231e-05 9.89896459192685e-05 0.0005115111861717453 0.002068044832981775 2.3115923273262433e-11 1.507918137519739e-05 1.1981186490608952e-05 1.1832210021377722e-08 6.467452799766303e-10 2.4012663079481154e-09 5.76211705485754e-06 5.254445780097463e-09 1.1211505138112083e-05 1.1315634254823809e-07 1.0178586220852965e-07 1.016154168997877e-07 5.73799904063012e-06 4.4691826999901e-09 3.31597588248143e-09 2.9268913020307263e-09 4.385591607744289e-09 4.496416620657898e-09 4.591187482968737e-09 4.724295906049376e-09 4.776773851485234e-09 7.276401418332995e-07 2.953477650543177e-06 1.5127469309960257e-05 2.5359833185073274e-08 6.8693648649386335e-09 7.759459999949143e-09 3.675882519411824e-06 5.975604077250295e-06 6.244297737281474e-06 6.759407510628314e-06 7.417228452055202e-06 7.848691648293707e-06 8.339231482918457e-06 9.46251486917018e-06 1.5945904449173996e-05 0.005657603662035093 9.13668478999944e-05 0.0001947725572064955 0.0006491026333090407 0.0022934937273607577 2.376127676949113e-11 1.5080288117868601e-05 1.8837008901482686e-05 2.7372446058341523e-08 1.7317953717823265e-09 3.484598060662899e-09 5.766426166452809e-06 5.323772441301793e-09 1.3103866318145235e-05 1.0386944290078861e-08 1.1260711648731816e-10 1.7934299686326135e-09 5.615404111465e-06 4.534466292503912e-09 3.501161240934115e-09 4.757464549913741e-05 4.2880738808398245e-05 3.0471428865838472e-05 2.674106310314426e-05 4.746616979964943e-05 6.060901718846125e-09 3.693444617745532e-07 2.4647545867537665e-06 1.7532922056382368e-05 2.432367839330408e-08 1.1723295733446491e-09 2.0328035991750347e-09 3.6598123742339923e-06 6.421512169840099e-06 6.628895370653452e-06 6.989277229533095e-06 7.491799278414205e-06 7.975022206220406e-06 8.571185766444626e-06 9.73182871291673e-06 1.582254939956949e-05 0.004133851362217678 0.0005867564396844756 0.00026505568711469906 0.0007766718811580923 0.002543807596299875 2.296805764495131e-11 1.408465401501288e-05 5.525979001868389e-05 5.393602239912087e-06 5.318792309869104e-06 5.320930108099567e-06 9.408177432930221e-06 5.430137035752081e-09 1.2637817426364459e-05 1.2377337747410566e-08 1.0929664345105272e-09 2.738788645536633e-09 5.6178540208896486e-06 4.583638557655407e-09 3.5842902258267405e-09 2.484092819989258e-05 1.0270341809856184e-07 4.807757431397882e-08 4.129368883849047e-08 5.544762306886034e-06 6.221925447574409e-09 3.075413886801375e-07 1.967623783283931e-06 2.0708031495956785e-05 4.416954374884122e-06 4.399764640401694e-06 4.400485026550482e-06 8.03891637155817e-06 9.039042341023387e-06 8.860830396575973e-06 8.608700547354645e-06 8.598294761554178e-06 8.77692580534332e-06 9.206025112266976e-06 1.0253742631952755e-05 1.5823917495571743e-05 0.0030412961114317516 0.00106858615553558 0.00040028377061862954 0.0009047064276351411 0.002813142888328957 2.1345489233234495e-11 1.2862070197489873e-05 1.2863605890703364e-05 1.2864195338258426e-05 1.2865344056208455e-05 1.2868536242448045e-05 8.7740792527044e-06 7.897248447607645e-06 2.1466586616129456e-05 3.6600762783482623e-06 3.6442856393762034e-06 3.6458482423799347e-06 9.260415214233582e-06 4.613709075093292e-09 6.261396065503506e-07 2.6900398043880798e-05 3.996547861912856e-08 6.575066735843881e-11 1.5686946997363132e-09 5.490236434905491e-06 6.425036838188265e-09 2.3628095530550286e-07 1.6083734786512668e-06 1.6517356436215975e-06 1.7280987560577634e-06 1.844164333272962e-06 2.012454801968052e-06 2.2495558352249076e-06 2.4713007882846783e-06 4.974297458586148e-06 6.790298539608993e-06 8.059874920609601e-06 8.96671539821629e-06 9.674599843220192e-06 1.0798775136427418e-05 1.6025001693970915e-05 0.0022866016916564475 0.001338424266456716 0.0005737699147484942 0.0010412976363759214 0.0030948105680585407 1.6830497759158175e-11 9.398206722744915e-06 1.1663684557488528e-05 1.2101926253976883e-05 1.2410708077092951e-05 1.2662003140772956e-05 9.055457575987467e-06 7.92065533204382e-06 7.924410295577389e-06 7.930917210896334e-06 7.940236288486167e-06 7.955030637404566e-06 8.05123764447293e-06 1.9884453580696102e-07 6.254889315496503e-07 2.6925322883209272e-05 4.279479700525315e-08 1.4802726671738272e-09 2.9243376526422733e-09 5.492567292808587e-06 6.7635205049168554e-09 1.6694947866863236e-07 8.392088117447282e-07 1.2084355874003397e-06 1.3550809007148034e-06 1.5160024241620584e-06 1.723880899449697e-06 1.943974157318023e-06 2.2677063779251574e-06 2.7979604732865612e-06 3.907337863006774e-06 5.520697980230708e-06 6.918204379630809e-06 9.080071738064432e-06 1.0962710803129302e-05 1.6368173327085604e-05 0.0017808050949596824 0.0014601024713486212 0.0007471000157866102 0.001189901612070242 0.0033844732529353856 1.347071918994451e-11 7.766467622122141e-06 1.0389945599462464e-05 1.1458686966601264e-05 1.2026022379946266e-05 1.2472474964287302e-05 9.921806245163394e-06 8.369240601171123e-06 8.19402039080845e-06 8.223407619508734e-06 8.283808278578803e-06 8.296994235029619e-06 8.263109902963126e-06 1.998047834714991e-06 7.581413873146482e-07 4.71663241881899e-05 5.323499570950543e-06 5.266110637811998e-06 5.268828663980002e-06 1.075942444941661e-05 5.182122657865453e-06 4.619995629629223e-06 3.958147209847921e-06 3.7160162443831458e-06 3.520816563007878e-06 3.2793066171519576e-06 3.5593641335239953e-06 2.419244665507777e-05 1.4383793997965914e-05 1.9398789398631267e-05 2.2287448378679812e-05 3.9020951044611454e-05 7.279851754348606e-06 8.899783782565159e-06 1.1255310731685403e-05 1.6974305209691434e-05 0.0014487388539496525 0.001502942170806657 0.000905097304365202 0.0013517242202421545 0.0036804903517299046 1.1291363342161096e-11 6.711994670032071e-06 9.571846424141489e-06 1.0931071028803657e-05 1.17243830589978e-05 1.2302113077392556e-05 1.0437525955453987e-05 2.06123732282332e-05 1.6050739373480647e-05 1.69610417074567e-05 1.6255707296033953e-05 2.7137050765510395e-05 8.299021379831553e-06 4.1618240653689236e-06 1.3939442486279393e-06 1.3988877870955277e-06 1.406887991854643e-06 1.418319319675412e-06 1.4342086976463555e-06 1.4552418858376136e-06 1.1152564778016795e-05 1.0664055102014182e-05 9.934585608505524e-06 9.313867783040193e-06 8.33150940095342e-06 7.408627774576961e-06 5.53307131206849e-06 2.2762979828183193e-05 3.241571997701772e-08 1.846455212171442e-08 2.5490227488625066e-08 4.258243245397755e-06 7.892952898546305e-06 9.435465280597947e-06 1.1850331502113503e-05 1.8063496799780503e-05 0.0012281484994220813 0.0015116995176109162 0.0010472787338620152 0.001527527765963394 0.00398279490881433 9.983113024107296e-12 6.058837314056139e-06 8.982285691848669e-06 1.0533743199609131e-05 1.147831042046208e-05 1.2163996521484145e-05 1.0866353627573932e-05 1.0303132886151508e-05 2.5556074310683927e-08 2.1015271403638268e-08 2.200215156905498e-08 3.6909702146012105e-06 8.359728823352734e-06 4.9775922661154405e-06 3.0218062258299708e-06 2.2688264482716113e-06 2.16428966529053e-06 2.1208159130806576e-06 2.0582260192259275e-06 2.1294410428718408e-06 2.9676601284878403e-05 1.0992068136830715e-05 1.7347107417569734e-05 2.0934088534624246e-05 3.838236176030114e-05 7.68220879058386e-06 6.595783249515261e-06 2.379378236599552e-05 2.5420486288930235e-08 2.1981457368462472e-11 9.055676600373376e-10 4.2205127986223826e-06 8.7359498956448e-06 1.0299825391847405e-05 1.2859549064685606e-05 1.9669694846798447e-05 0.001079515132620458 0.0015095011449425277 0.0011790235581281892 0.0017183067391681043 0.00429204540099559 9.12954027817318e-12 5.599363119042757e-06 8.537128210076692e-06 1.0205804699464504e-05 1.1263367407376494e-05 1.2035711688524396e-05 1.1221873211013349e-05 1.3241902301135942e-05 1.0640403717221996e-08 1.7275249713233848e-11 9.918684173555789e-10 3.663200595387894e-06 8.451922883872734e-06 5.642869275776106e-06 3.7951406785824273e-06 3.3592851776393406e-06 3.1920395850135826e-06 3.1581366276188646e-06 3.014754045594083e-06 2.845699995384576e-06 2.866323096225256e-05 4.238365656478776e-08 1.8677726126525966e-08 2.6732484822018555e-08 4.501617542192444e-06 8.099679757766583e-06 7.13945405706505e-06 2.3862822901831254e-05 2.85505630055858e-08 1.0182417777508705e-09 1.862852618925605e-09 4.2217719179297885e-06 9.840481363832236e-06 1.1472654428373368e-05 1.4231129433687096e-05 2.1812496733057567e-05 0.0009713796077893602 0.0015051773586401132 0.0013062795237144236 0.0019249431091085951 0.004609007574934146 8.496701554130121e-12 5.237358534770343e-06 8.156390864457805e-06 9.899906658706464e-06 1.1041866324641458e-05 1.1887579608027516e-05 1.1526909793954662e-05 1.5337963150982017e-05 1.570223321190107e-08 1.2667059472749935e-09 2.1720534933059805e-09 3.6648054208166133e-06 8.585092195071457e-06 5.884963418582907e-06 2.364935673494727e-05 2.343494335565515e-05 2.704966949767321e-05 2.9067102002342517e-05 4.8339780375970034e-05 2.8752380474278635e-06 3.3357461302501426e-05 3.9760525080718215e-08 3.2420902979242834e-11 1.054547966539632e-09 4.460773186126063e-06 8.643950545586822e-06 7.809659689719737e-06 3.939225269835492e-05 4.621501813268179e-06 4.583348985430897e-06 4.584272927472912e-06 8.803440693388283e-06 1.1310355532213265e-05 1.299885851337562e-05 1.594379079296296e-05 2.4406121951305306e-05 0.0008841022612932891 0.001499792971303463 0.0014330902554428341 0.002147658734653206 0.004934160939548799 7.96117517728324e-12 4.91798768439199e-06 7.792540558110883e-06 9.578343626765658e-06 1.0774508078798723e-05 1.1679598182414693e-05 1.1745419528879803e-05 3.264267558874987e-05 4.8069307917710194e-06 4.780598711666615e-06 4.781675646158272e-06 8.443312363730019e-06 8.762920697605241e-06 6.101228351043352e-06 1.3609906683264902e-05 3.809065901005565e-08 3.677098238249228e-08 4.627675867008051e-08 5.057784100241867e-06 2.909746463205362e-06 2.306809807321295e-05 2.932493318299854e-08 1.1928264356844879e-09 2.1652137242299926e-09 4.462254114407427e-06 9.48459644384228e-06 8.562842723192211e-06 9.062730268769469e-06 9.890606645903117e-06 1.0932729369620581e-05 1.2297713798046479e-05 1.4910377542251788e-05 1.3696098018405259e-05 1.491486343312195e-05 1.795291890998584e-05 2.7329698034721183e-05 0.0008061837255111784 0.0014913100893794472 0.001561008639751557 0.0023856870841692528 0.005267506087774913 7.469750016694255e-12 4.618941249690166e-06 7.425714875435345e-06 9.219233184484347e-06 1.0448701617977235e-05 1.1341344077193743e-05 1.1797913993082196e-05 1.1954948751990615e-05 1.230375964035383e-05 1.2989958448978997e-05 1.4580990293204992e-05 3.0726958754279185e-05 8.204601400137462e-06 6.347171001890952e-06 1.9243337745634146e-05 2.150865594551044e-08 3.6742970471965414e-11 1.2868560982409155e-09 4.990621177081613e-06 2.947095347282333e-06 3.9079174354605314e-05 5.0238563056417415e-06 4.989700937863243e-06 4.991382502718726e-06 9.451428554430676e-06 1.1112842025340012e-05 1.074148099777996e-05 1.098468153263539e-05 1.1976633445993101e-05 1.325863671267917e-05 1.4485650622746396e-05 1.5824886507532215e-05 1.615447268395269e-05 1.7119820467379976e-05 2.0206086128788674e-05 3.048673980931556e-05 0.0007331931668678963 0.0014772097686837104 0.0016893217808804433 0.002637155516293303 0.005608445343891017 7.01800545373554e-12 4.343400897813925e-06 7.0608531196931875e-06 8.834460721051132e-06 1.0051338199834864e-05 1.0954849444711992e-05 1.1519669682212837e-05 1.1901116716897611e-05 1.2277420044737912e-05 1.2981416610429106e-05 1.4517606090096389e-05 2.747443159504327e-05 1.6853161530554587e-05 7.549039135670925e-06 2.454020322818915e-05 3.611814024574547e-08 1.059218716095621e-09 2.2555733262698448e-09 4.991460836545528e-06 2.9921438727894373e-06 3.0462788678277363e-06 3.1670692217423327e-06 3.362441498896987e-06 3.6763550760753776e-06 4.387194942462706e-06 1.34481226740761e-05 2.091610383138837e-05 1.9313956373952413e-05 2.303943747533554e-05 2.3069100165052134e-05 4.00592680162029e-05 1.693773363004252e-05 1.7890256799200113e-05 1.9311898543582938e-05 2.2677037448083026e-05 3.387631537345069e-05 0.0006643817561281297 0.0014555063770848127 0.0018155153977090872 0.002898910627933389 0.005955845872518071 6.635882841463962e-12 4.113193287547986e-06 6.735095847448519e-06 8.452043816413078e-06 9.634580461203976e-06 1.0488058677791758e-05 1.1160121766854683e-05 1.1668598279386948e-05 1.2201102733364224e-05 1.2977532737159072e-05 1.4438580430186844e-05 2.2441837039908615e-05 2.156846700437673e-05 1.3287491101517768e-05 5.1119225767915366e-05 4.596005277570356e-06 4.529370490528902e-06 4.530718441811807e-06 9.520099279004268e-06 3.1086173522803218e-06 3.161937757628703e-06 3.2988708659589624e-06 3.5206410192316144e-06 3.837455338885107e-06 4.417925585055534e-06 1.2223126807471382e-05 2.3092748897639084e-05 3.721101938103658e-08 2.3497082750123688e-08 2.6603114371977444e-08 4.598150838832516e-06 1.877744220514545e-05 1.9879017417771768e-05 2.1708916389056888e-05 2.5469828935302465e-05 3.755135081152194e-05 0.0005997678796276096 0.0014241267290630876 0.0019353220990841926 0.003166105686827162 0.006307915017246811 6.3957458129558594e-12 3.976684330795468e-06 6.500024042410764e-06 8.14900549646319e-06 9.237633278613986e-06 1.0022786673303745e-05 1.0698208852316585e-05 1.1324188072994041e-05 1.1992646696389047e-05 1.2958524758733058e-05 1.4783159911121665e-05 1.920686182827018e-05 2.1716849858110667e-05 1.73905170384784e-05 1.7844395087689704e-05 1.8436808763237707e-05 1.9679808864030767e-05 2.2706416618336722e-05 3.0824208782528485e-05 2.1295418805984564e-05 1.7093633226256248e-05 1.6936817316999184e-05 1.889497429134183e-05 2.096281302678859e-05 1.8500038502156493e-05 1.7571374304862775e-05 3.0683878251345656e-05 3.289959655854182e-08 2.855745467458491e-11 9.236432218407176e-10 4.561148234789554e-06 2.127491918881676e-05 2.253710121018944e-05 2.460646487448007e-05 2.8710763563796665e-05 4.155407581255573e-05 0.0005377840214153119 0.001379929255569799 0.0020423023676083576 0.0034316068679935193 0.006662239757945657 6.373354370581757e-12 3.981388476898168e-06 6.5064614744209534e-06 7.954427486487107e-06 8.943467173350076e-06 9.575319507451603e-06 1.0159256671680699e-05 1.0789790711115393e-05 1.1659731415321314e-05 1.284327982870834e-05 2.337355546593188e-05 2.3105900377048956e-05 3.047904034799401e-05 3.09924597062593e-05 5.676222337317357e-05 1.9166869626045348e-05 2.0400875632405273e-05 2.3699525013922156e-05 3.219256219925718e-05 4.118890383815178e-05 1.735016176754304e-05 1.560934378543358e-05 2.1291326206999326e-05 2.633816263466688e-05 5.080459653952291e-05 1.854543680121636e-05 3.431179811710264e-05 3.91179020768296e-08 9.470842517173683e-10 1.7920477100773531e-09 4.562441205849979e-06 2.4593160518867648e-05 2.598479208949378e-05 2.8196424632022404e-05 3.250132477751742e-05 4.579460880826583e-05 0.00047622502296426476 0.0013182339120861616 0.0021271807159160693 0.003685265285655256 0.007015616166008091 6.52816546857213e-12 4.093320886545315e-06 6.661826544241177e-06 8.250873179873193e-06 8.874260200473901e-06 9.213437878593185e-06 9.538608233465317e-06 1.0042784412133938e-05 1.0679098657893272e-05 1.2558437349719907e-05 2.0733255950133517e-05 4.1921093495570445e-08 3.696356710792774e-08 4.459552827976067e-08 4.591578048114011e-06 2.1028565809235496e-05 2.2339787153649683e-05 2.5872289444333954e-05 3.509954971185412e-05 5.275909418897975e-05 1.7612779078855716e-05 2.2651034058181548e-08 1.8550076733659958e-08 3.009198067677219e-08 4.917365071991699e-06 1.967784879053167e-05 4.4743589667395805e-05 4.8988301446336015e-06 4.859088788937908e-06 4.860321183339679e-06 9.420468418544732e-06 2.925654449224994e-05 3.062745505798568e-05 3.270262179573951e-05 3.691258369548091e-05 5.0106107697696055e-05 0.0004134350551426493 0.001234098871214588 0.0021779232301313645 0.003913455212449779 0.0073640242967064045 6.886599388551009e-12 4.33603469588401e-06 1.0886255615292468e-05 3.737127844329243e-05 2.7360504276789904e-05 2.984101047262868e-05 3.0641935191633904e-05 4.814600655641555e-05 1.0751696729855622e-05 1.233173570079586e-05 2.4282559310791657e-05 2.623297245252749e-08 3.542806514056131e-11 1.0227818309059226e-09 4.529205085927151e-06 2.4661117710113043e-05 2.616204800703095e-05 2.9897414982929607e-05 3.9671675124173804e-05 6.30716525827354e-05 2.221002596730148e-05 1.9512590883597327e-08 1.6831197820216335e-11 9.947183346653291e-10 4.859361319004966e-06 2.1025514128981985e-05 2.256299313340993e-05 2.5903321452808734e-05 3.1189785057884066e-05 3.967277349229588e-05 5.829865816487699e-05 3.788116581923823e-05 3.775639403817357e-05 3.873873518930716e-05 4.217864238148179e-05 5.4401014790829026e-05 0.00034983274053381445 0.0011245830088123718 0.0021811885240818683 0.004099263619933755 0.007702696913015202 7.208406340356472e-12 4.534741820635527e-06 1.0733903843164142e-05 5.3177452645664234e-06 3.323166904055141e-08 3.638128872865905e-08 4.207107362371579e-08 5.49402920569115e-06 1.085490108706996e-05 1.2535553571288622e-05 2.5165902349966788e-05 3.047975217965628e-08 1.2432740727681478e-09 2.1599288026174654e-09 4.530864992750948e-06 3.2184692244140044e-05 3.35542178060537e-05 3.6739124914580594e-05 4.5562430064226644e-05 7.196549239947611e-05 2.481047173004312e-05 2.592157117118512e-08 8.356362849027354e-10 1.7679984522399228e-09 4.859812988421898e-06 2.4514542877601623e-05 2.595345983535887e-05 2.951015636817609e-05 3.505520535711397e-05 4.338763939809113e-05 5.950099151607306e-05 6.002033241570278e-05 5.315356077401843e-05 4.939031126115544e-05 4.9732230533706136e-05 5.9227368836683005e-05 0.0002882192845367031 0.0009911136734528465 0.0021251859905409647 0.004223453066551674 0.008026273630497648 7.262092671399507e-12 4.543729164214993e-06 1.0732979526813268e-05 9.289901266985856e-06 5.13903437411656e-09 2.226921927367219e-11 1.3728474177132695e-09 5.4392100335244885e-06 1.0985969792986548e-05 1.2657633435069221e-05 4.2584338558042804e-05 5.356999743475776e-06 5.31766894113693e-06 5.319430072239701