# vtk DataFile Version 3.0
vtk output
ASCII
DATASET RECTILINEAR_GRID
DIMENSIONS 41 41 1
X_COORDINATES 41 double
0 1 2 3 4 5 6 7 8 9 10 11 12 13 14 15 16 17 18 19 20 21 22 23 24 25 26 27 28 29 30 31 32 33 34 35 36 37 38 39 40 
Y_COORDINATES 41 double
0 1 2 3 4 5 6 7 8 9 10 11 12 13 14 15 16 17 18 19 20 21 22 23 24 25 26 27 28 29 30 31 32 33 34 35 36 37 38 39 40 
Z_COORDINATES 1 double
0
POINT_DATA 1681
FIELD FieldData 1
Concentracao 1 1681 double
1.0 1.0 1.0 1.0 1.0 0.9999999999999999 0.9999999999999999 0.9999999999999998 0.9999999999999999 0.9999999999999997 0.9999999999999992 0.9999999999999987 0.9999999999999984 0.9999999999999982 0.999999999999998 0.9999999999999979 0.9999999999998478 0.99999999956832 0.9999995729561163 0.9999991740308114 0.9999987739029055 0.9999983772735721 0.9999983772278943 0.9999983771761416 0.9999983770918365 0.9999983769767771 0.9999983768264725 0.9999983766368296 0.9999983764009962 0.9999983761087038 0.999998375743805 0.9999983752798308 0.9999983746639862 0.9999983724425935 0.9999982328354934 0.9999908088949963 0.9997624600924033 0.9955939551189147 0.9506757038437613 0.6838491129537213 5.630372515625558e-05 1.0 1.0 1.0000000000000002 1.0000000000000002 1.0000000000000002 1.0000000000000002 0.9999999999999996 1.0 0.9999999999999992 0.9999999999999988 0.9999999999999982 0.9999999999999978 0.9999999999999976 0.9999999999999977 0.9999999999999967 0.9999999999827343 0.9999998919676232 0.9994465325570399 0.014465951982257107 0.00031630742587420997 0.00027607301386376127 0.0059578774763738955 0.999970063793458 0.9999787330643898 0.9999846685229491 0.9999878233290855 0.9999899371809626 0.9999914278856351 0.9999925517849828 0.999993437919529 0.9999941636984082 0.9999947770539003 0.9999953095296338 0.9999957812274379 0.999996065098332 0.9999887490100248 0.9997540426009277 0.9954998478633154 0.9500238329312618 0.6819502580803847 5.6136430888104066e-05 0.9999999999999998 1.0 1.0 1.0000000000000002 1.0000000000000002 1.0000000000000002 0.9999999999999998 0.9999999999999996 0.9999999999999996 0.9999999999999989 0.9999999999999987 0.9999999999999984 0.9999999999999983 0.9999999999999986 0.999999999999995 0.9999999999170941 0.9999994763089969 0.9988604603892657 0.0095580323429476 4.5184485995429765e-05 2.4516822560312503e-07 0.00027683127122059064 0.9999240845480551 0.9999619711925987 0.9999723217022789 0.9999784488085995 0.9999823405041733 0.9999851165161425 0.9999872140633915 0.9999888781569837 0.9999902486325145 0.9999914130527616 0.9999924290109733 0.9999933344972907 0.9999940007434508 0.9999864341630299 0.9997379750097842 0.9953073621864125 0.9487043011950751 0.6781650073721223 5.587649245986245e-05 0.9999999999999998 1.0 0.9999999999999999 0.9999999999999999 1.0 1.0 1.0 0.9999999999999998 0.9999999999999998 0.9999999999999991 0.9999999999999989 0.9999999999999986 0.9999999999999986 0.9999999999999983 0.9999999999999861 0.9999999997501604 0.9999988067210064 0.998276509728022 0.009595765525545816 4.511666316191606e-05 1.7992904717213576e-07 0.00026951805188903696 0.9998484201047053 0.9999342904566836 0.9999575160997718 0.9999680890156772 0.9999744597707904 0.9999787791076654 0.9999819656470609 0.9999844531193608 0.9999864815504023 0.9999881940853448 0.9999896823620753 0.9999910061406697 0.9999920267129646 0.9999837818352993 0.9997129469703152 0.9950056191914615 0.9466831175239505 0.6724998475400842 5.552193313430673e-05 0.9999999999999996 1.0 1.0 0.9999999999999998 1.0 0.9999999999999998 0.9999999999999996 0.9999999999999997 0.9999999999999994 0.9999999999999994 0.9999999999999993 0.9999999999999993 0.9999999999999983 0.9999999999999978 0.9999999999999637 0.9999999994243197 0.9999978733820125 0.9976553701183404 0.00935248410535034 4.494393068767814e-05 1.8188229094741681e-07 0.0002670544894067902 0.9997456210481721 0.9998991579633004 0.9999390351888625 0.9999562972245044 0.9999659280021295 0.9999721846963234 0.9999766518287001 0.9999800620135655 0.9999827979763241 0.9999850806691103 0.9999870472718466 0.9999887855235448 0.9999901353320393 0.9999806568906008 0.999676889395637 0.9945788717338765 0.9439151547679451 0.664971184405925 5.506998599369779e-05 0.9999999999999992 0.9999999999999999 1.0 0.9999999999999999 0.9999999999999997 0.9999999999999996 0.9999999999999997 0.9999999999999988 0.9999999999999986 0.9999999999999979 0.9999999999999974 0.9999999999999971 0.9999999999999959 0.9999999999999958 0.9999999999999144 0.9999999988527868 0.9999965767100116 0.9969830711360543 0.00923474814358581 4.431534478669456e-05 1.80403240030458e-07 0.0002640735051409571 0.9996145065024874 0.9998562211178803 0.9999174725982245 0.9999430084040968 0.9999567111110687 0.9999652876975462 0.9999712384719647 0.9999756796696438 0.9999791809420084 0.9999820624913747 0.9999845185534499 0.9999866710595839 0.9999883197062966 0.999976846684987 0.9996267499725343 0.9940057525653039 0.9403430954730299 0.655610089862534 5.451741934740339e-05 0.9999999999999991 0.9999999999999998 0.9999999999999997 0.9999999999999997 0.9999999999999997 0.9999999999999992 0.9999999999999994 0.999999999999999 0.9999999999999988 0.9999999999999982 0.9999999999999979 0.9999999999999979 0.9999999999999969 0.9999999999999967 0.9999999999998145 0.9999999978885658 0.9999948009969825 0.9962382738584535 0.009075081296129174 4.324505759441062e-05 1.7555173617322902e-07 0.00026058324039509207 0.9994562925681753 0.9998066928428286 0.9998932491848255 0.9999285030006766 0.9999469166770092 0.9999581447530237 0.9999657541658658 0.9999713218287108 0.9999756394302198 0.9999791450271359 0.9999821000221689 0.9999846654548236 0.9999865687643089 0.9999720204195316 0.9995582391146439 0.9932583940490626 0.9359003016954552 0.644463068235071 5.3860709613658994e-05 0.999999999999999 1.0 0.9999999999999997 0.9999999999999998 0.9999999999999994 0.9999999999999992 0.9999999999999989 0.9999999999999992 0.9999999999999982 0.9999999999999979 0.9999999999999973 0.999999999999997 0.9999999999999967 0.9999999999999963 0.9999999999996124 0.999999996294437 0.999992376637821 0.9954035439963846 0.008891701924456813 4.183348456619917e-05 1.6869373764675589e-07 0.00025662154440842585 0.9992723016750273 0.9997514730080639 0.9998669676811845 0.9999130926793228 0.9999367236964114 0.9999508543929948 0.9999602563307358 0.9999670222627088 0.9999721935402929 0.9999763401133702 0.999979798394146 0.999982771884623 0.999984860909922 0.9999656678705994 0.9994653560053409 0.9923012525928258 0.930512378034229 0.6315964275195358 5.309633621341155e-05 0.9999999999999992 0.9999999999999998 0.9999999999999999 0.9999999999999997 0.9999999999999994 0.9999999999999993 0.9999999999999986 0.9999999999999984 0.9999999999999979 0.9999999999999973 0.9999999999999967 0.9999999999999959 0.9999999999999961 0.9999999999999958 0.9999999999991978 0.9999999936682389 0.9999890647616169 0.9944567557936593 0.008682712892329346 4.016779659291694e-05 1.6041397364885736e-07 0.0002522238055827272 0.9990642030011536 0.9996915726812111 0.9998391701576537 0.9998970956114653 0.9999263135608907 0.9999435231481147 0.9999548073449992 0.9999628176561353 0.9999688642032842 0.9999736591010082 0.9999776191861716 0.9999809911552943 0.9999831554990246 0.999957008966391 0.99933991277901 0.991091430140304 0.9241016164215722 0.6171003777558284 5.222124991845558e-05 0.9999999999999988 0.9999999999999998 0.9999999999999994 0.999999999999999 0.9999999999999993 0.9999999999999989 0.999999999999998 0.9999999999999982 0.9999999999999976 0.9999999999999969 0.9999999999999962 0.9999999999999952 0.9999999999999946 0.9999999999999937 0.9999999999981722 0.9999999892384809 0.9999845039821557 0.9933742432007149 0.00845174784111608 3.83126899165381e-05 1.5118560339417227e-07 0.00024742574860222243 0.9988337441003876 0.9996278701531089 0.9998103279525404 0.999880777215847 0.9999158415742252 0.9999362412319679 0.9999494596822344 0.9999587373054789 0.999965666865548 0.9999711088877928 0.9999755640107278 0.9999793195713444 0.9999813793419563 0.9999448600063948 0.9991709430422689 0.9895774702980626 0.9165910790816199 0.6010903558108652 5.123321033055344e-05 0.9999999999999981 0.9999999999999994 0.9999999999999994 0.9999999999999992 0.9999999999999992 0.9999999999999987 0.9999999999999977 0.9999999999999974 0.9999999999999972 0.9999999999999976 0.9999999999999961 0.9999999999999958 0.9999999999999951 0.9999999999999938 0.9999999999935653 0.9999999786056716 0.9999779629091684 0.992127652911293 0.0082022157667273 3.6327197515218624e-05 1.414100870263833e-07 0.0002422610892733992 0.9985826766766958 0.9995610624960577 0.9997807848364457 0.9998643262617839 0.9999054149446528 0.9999290694971372 0.9999442459178178 0.9999547973501626 0.9999626074551079 0.9999686891700333 0.9999736289182737 0.9999777466769564 0.9999794043095267 0.9999274422251715 0.9989439525286651 0.9877002619385827 0.9079118355056359 0.5837115070935723 5.013129956446254e-05 0.9999999999999976 0.9999999999999989 0.9999999999999989 0.9999999999999988 0.9999999999999983 0.9999999999999981 0.9999999999999978 0.9999999999999971 0.9999999999999968 0.999999999999997 0.9999999999999962 0.9999999999999954 0.9999999999999946 0.9999999999999856 0.9999999999758816 0.9999999540655652 0.9999662026024708 0.9904377303533409 0.007939649673347102 3.432573009960837e-05 1.3180125232123162e-07 0.000236760374007006 0.9983126564758745 0.9994915754394849 0.9997507270273245 0.9998478393186239 0.9998950834121472 0.999922031546369 0.9999391745765962 0.9999509971020469 0.9999596800186544 0.9999663914093964 0.9999718039150416 0.9999762523835067 0.9999770101487161 0.9999021217958587 0.9986402705551388 0.9853943762620248 0.898011484046099 0.5651423583905065 4.891637504018987e-05 0.9999999999999968 0.9999999999999981 0.9999999999999987 0.9999999999999983 0.9999999999999979 0.9999999999999979 0.9999999999999983 0.9999999999999968 0.9999999999999968 0.9999999999999956 0.9999999999999961 0.9999999999999953 0.999999999999995 0.9999999999999358 0.9999999999110057 0.9999999008988572 0.999948102515095 0.9884280951151169 0.007664315956386933 3.22731537803699e-05 1.2208377963981122e-07 0.0002309499847072103 0.9980251687289767 0.9994194890801289 0.9997201599858976 0.9998313084961895 0.9998848343795289 0.9999151112853512 0.9999342275312766 0.9999473177473609 0.9999568662146247 0.999964198084056 0.9999700720480402 0.9999748011510221 0.9999738234473886 0.9998650712472635 0.9982365768496936 0.9825909087835827 0.8868634180792041 0.5455940198605824 4.759150357717339e-05 0.999999999999996 0.999999999999998 0.9999999999999986 0.9999999999999977 0.9999999999999972 0.999999999999997 0.999999999999997 0.9999999999999967 0.999999999999996 0.9999999999999952 0.9999999999999954 0.9999999999999947 0.9999999999999937 0.9999999999995842 0.99999999968349 0.9999997880650559 0.9999206662906066 0.9860427544363122 0.007378421779048765 3.0200231024485606e-05 1.1244458391959694e-07 0.00022485132320740082 0.9977214795112032 0.9993444619348518 0.9996888758106492 0.9998146098958991 0.9998745853746104 0.9999082486998865 0.9999293586602439 0.9999437220318571 0.9999541349663965 0.9999620829297616 0.9999684089683012 0.9999733304423528 0.9999692211391671 0.9998108755063301 0.9977047939210363 0.979222570866366 0.8744790487410284 0.5253143609284149 4.6162455993176984e-05 0.9999999999999958 0.9999999999999971 0.9999999999999979 0.9999999999999971 0.9999999999999963 0.9999999999999969 0.9999999999999959 0.9999999999999954 0.9999999999999948 0.9999999999999938 0.9999999999999941 0.999999999999993 0.999999999999985 0.9999999999974145 0.9999999989227875 0.9999995528229623 0.9998794486376291 0.9832176630956236 0.0070853731456093 2.8140302450006644e-05 1.0303186440313886e-07 0.00021848015318289484 0.9974025639745808 0.9992656477007756 0.9996564213734559 0.9997974912476649 0.9998641806491914 0.9999013389989767 0.9999244920138247 0.999940152601702 0.999951441619356 0.9999600102415984 0.9999667800831078 0.9999717275361861 0.9999621881205966 0.9997321369062779 0.9970128090786365 0.97523101191793 0.8609186882866167 0.5045838805497214 4.4638009348010554e-05 0.9999999999999956 0.9999999999999968 0.9999999999999972 0.9999999999999961 0.9999999999999953 0.9999999999999954 0.9999999999999957 0.9999999999999951 0.9999999999999954 0.9999999999999923 0.9999999999999933 0.9999999999999925 0.9999999999999033 0.9999999999853941 0.999999996500446 0.9999990715819103 0.9998180517004277 0.9798824407349626 0.006786818178116115 2.6112572804881818e-05 9.394635501000995e-08 0.00021184571611323973 0.997069086131245 0.9991816005053401 0.9996220477365904 0.9997795471920341 0.9998533773110223 0.9998942235358397 0.9999195179863131 0.9999365299856189 0.9999487267553957 0.9999579329135196 0.9999651337533836 0.9999697864653287 0.9999511242025725 0.9996192024807397 0.9961264219504836 0.9705762405012308 0.8463037585532154 0.48371471683751815 4.3030157287243776e-05 0.999999999999996 0.9999999999999964 0.9999999999999969 0.9999999999999959 0.9999999999999943 0.9999999999999952 0.9999999999999948 0.9999999999999938 0.9999999999999938 0.999999999999992 0.9999999999999931 0.9999999999999779 0.9999999999991898 0.9999999999253547 0.9999999891671784 0.9999981073184636 0.9997274609402149 0.9759612646208261 0.0064851884118630534 2.4139698295472244e-05 8.527527308965113e-08 0.00020494985010546536 0.9967213437317998 0.9990901430763497 0.9995846330982375 0.9997601781638598 0.9998418232322802 0.9998866788297535 0.9999142855395071 0.999932747703513 0.9999459117204987 0.9999557874152845 0.9999633839787158 0.9999671321854259 0.9999336160370265 0.9994602112160841 0.9950129652213722 0.965249191254962 0.8308284684061267 0.4630452970443704 4.135418778790704e-05 0.9999999999999954 0.9999999999999961 0.9999999999999954 0.9999999999999952 0.9999999999999933 0.9999999999999947 0.999999999999995 0.9999999999999938 0.9999999999999929 0.9999999999999908 0.9999999999999803 0.9999999999997952 0.9999999999939388 0.9999999996542993 0.9999999680964275 0.9999962196503199 0.9995952497351465 0.971375422606681 0.006182927479283114 2.2236809039112134e-05 7.707773261252312e-08 0.00019778590210360996 0.9963591811180101 0.9989882111276435 0.9995425549076913 0.9997385170836152 0.9998290156008833 0.9998783906078953 0.9999085866323171 0.9999286605094702 0.9999428888834266 0.9999534787062214 0.9999613712420423 0.9999631003796305 0.9999062239650164 0.9992417461762247 0.9936468327145995 0.9592844297808495 0.8147652516590127 0.4429369128329832 3.962848724095058e-05 0.9999999999999951 0.9999999999999959 0.9999999999999947 0.9999999999999954 0.9999999999999928 0.9999999999999937 0.9999999999999934 0.9999999999999908 0.9999999999999852 0.9999999999999615 0.9999999999998072 0.9999999999980481 0.9999999999609092 0.9999999985456577 0.9999999107482107 0.9999926187762944 0.9994047375362294 0.9660465227231188 0.00588129184139786 2.0416106517537672e-05 6.937842174033555e-08 0.0001903369011849602 0.9959819361550724 0.9988716252975796 0.999493484926895 0.9997132986044536 0.999814221556079 0.9998689042277491 0.9999021204069792 0.9999240566886259 0.999939493074544 0.9999508394498116 0.9999587808758928 0.999956564888617 0.9998643805153631 0.9989503593529387 0.9920168098527563 0.9527739022107115 0.798469331849857 0.42376510240912496 3.78742535710822e-05 0.9999999999999892 0.9999999999999897 0.9999999999999876 0.9999999999999861 0.9999999999999806 0.9999999999999758 0.9999999999999637 0.9999999999999332 0.9999999999998501 0.9999999999995456 0.9999999999979483 0.999999999984378 0.9999999997816814 0.999999994430542 0.9999997631866789 0.9999859449240724 0.9991342457220549 0.959902227670562 0.00558286104925278 1.8690074955886122e-05 6.220484941759103e-08 0.00018257321015307797 0.9955882516669575 0.9987347557740939 0.9994340361676279 0.9996826127344962 0.9997963127058571 0.9998575077282059 0.9998944045449618 0.9999185792535491 0.9999354197812028 0.9999475256549999 0.9999549807819418 0.9999457173780278 0.9998025413925886 0.9985751736254527 0.9901347290165157 0.9458771352298208 0.782375252231107 0.4059127923637103 3.611487831080893e-05 0.9999999999998732 0.9999999999998672 0.9999999999998502 0.9999999999998215 0.999999999999771 0.9999999999996814 0.9999999999995071 0.9999999999991297 0.9999999999981775 0.9999999999951701 0.9999999999821394 0.9999999998957743 0.9999999989359623 0.9999999805454276 0.999999405047216 0.9999739645605109 0.9987567188542967 0.9528830908024292 0.005289131478544086 1.706374089226748e-05 5.554796248381218e-08 0.00017444846538510614 0.9951756986884407 0.9985698930582357 0.9993590642790297 0.9996433493339623 0.9997733469229952 0.9998429054881396 0.9998845033391187 0.9999114821934688 0.9999299856286696 0.9999427528959287 0.9999487133664026 0.9999278115273749 0.9997147071390805 0.9981113703276301 0.9880437017482092 0.9388271602033322 0.7669895121678437 0.3897651938002275 3.4375204735892196e-05 0.9999999999981729 0.9999999999980811 0.9999999999978813 0.99999999999753 0.9999999999969377 0.9999999999959203 0.9999999999940704 0.9999999999903781 0.9999999999819396 0.9999999999584922 0.9999999998725153 0.9999999994115342 0.9999999954370187 0.9999999378845162 0.9999985868487039 0.9999532016513967 0.9982401281271663 0.9449528220883676 0.005002058080939036 1.5544052870025827e-05 4.9402393026322896e-08 0.0001658935682378199 0.9947395777214708 0.9983657162841726 0.9992599402625019 0.9995896753604032 0.9997413035987563 0.9998221691769698 0.9998701360364797 0.9999008526277143 0.9999214253792975 0.9999346387904503 0.9999374928525995 0.9998988471266633 0.9995953290950315 0.9975641305212491 0.9858239423633083 0.9319280089556993 0.7528733694549655 0.3757048530015405 3.2680676290666025e-05 0.999999999978081 0.9999999999771363 0.9999999999751725 0.9999999999718143 0.9999999999663517 0.9999999999573859 0.9999999999420006 0.9999999999134421 0.9999999998538095 0.9999999997059481 0.9999999992369716 0.9999999971423531 0.9999999826409822 0.9999998183235186 0.9999968308566706 0.9999185788201991 0.9975490776870106 0.9361092131874121 0.004723940163296111 1.4136401563410657e-05 4.374966834929804e-08 0.00015680625142713264 0.9942680719530991 0.9981020571898992 0.9991191210199434 0.999508053461813 0.9996897700761109 0.9997870930064758 0.9998446423747286 0.9998810975415537 0.9999048154726283 0.9999185015323583 0.9999163073720864 0.9998529826743654 0.9994402671104518 0.9969516133950183 0.9835939172880704 0.925543324603808 0.740623263161916 0.36410769448517794 3.105628906034504e-05 0.9999999997819604 0.9999999997741413 0.9999999997586941 0.999999999733203 0.9999999996932039 0.9999999996303532 0.9999999995280467 0.9999999993500872 0.999999999007039 0.9999999982372539 0.9999999960846965 0.9999999878771701 0.9999999409310505 0.9999995120439799 0.9999932975634901 0.9998632251999162 0.9966483845837337 0.9263987298611038 0.004456720907244784 1.2842936192973398e-05 3.8562859468759406e-08 0.00014703348738829427 0.9937227560154891 0.9977301103461711 0.9988906674281894 0.9993593930970653 0.9995864583615208 0.9997112699231551 0.9997865207604757 0.9998347049583921 0.9998657547502676 0.9998821731932129 0.9998744048566963 0.9997809033513843 0.9992469922534799 0.9963056091207997 0.9815042047587619 0.9200731495573935 0.7308424045265154 0.35534374939683677 2.9525689008194035e-05 0.9999999981607792 0.9999999981076042 0.9999999980102257 0.9999999978557618 0.9999999976222685 0.9999999972696797 0.9999999967216414 0.9999999958194276 0.9999999941934622 0.9999999908404058 0.9999999824185135 0.9999999543988497 0.9999998187102159 0.9999987932134013 0.9999866444468704 0.9997786975010327 0.9955088213768766 0.9159306892463092 0.004202290929049302 1.1664564703050457e-05 3.3802758729267644e-08 0.00013634054658885343 0.9929605786653227 0.9970951866273048 0.9984267610217888 0.9990128645640197 0.9993205204693534 0.9995036824506839 0.9996229454385328 0.999704657025377 0.9997603110808949 0.9997920652856157 0.9997862375606136 0.9996646590110576 0.9990120337278696 0.9956678086953852 0.9797227361976092 0.9159210143547639 0.7241116310515251 0.3497797173874108 2.811030224885835e-05 0.9999999865696336 0.9999999862724113 0.9999999857845261 0.999999985053026 0.9999999839893385 0.9999999824367879 0.9999999801063161 0.9999999764166227 0.9999999700826167 0.9999999578240442 0.9999999295554209 0.9999998456400986 0.9999994937714076 0.9999972434669722 0.999974943974146 0.9996559209454791 0.9941155033661474 0.9048927186828143 0.003963134620682353 1.060285999845948e-05 2.9432898261768657e-08 0.00012434991252699881 0.9914243082613415 0.9956349483540939 0.9971969490850939 0.9979972551291888 0.9984929360432279 0.9988401284338702 0.99910025751204 0.9992993295392628 0.9994483278618179 0.9995486673583044 0.9995834457416052 0.9994611735811719 0.9987209762166008 0.9950785586754379 0.9784110638731216 0.913451597198321 0.720953614600778 0.3477817825420753 2.6828554501370176e-05 0.9999999135937307 0.9999999122330154 0.9999999104117582 0.9999999079454948 0.9999999045347874 0.9999998996572562 0.9999998923735841 0.9999998808605477 0.9999998612621264 0.9999998242675964 0.9999997432491229 0.9999995224531166 0.9999987014516689 0.9999941635983264 0.9999557640132839 0.9994871153129572 0.9924782025214456 0.8935636899731213 0.0037412692236063177 9.656706992415385e-06 2.5400700943733627e-08 0.00011041842948497201 0.9869243382887823 0.9912026077536247 0.9932077199909813 0.9945570112282481 0.9956313257075494 0.9965408592325061 0.9973136985653684 0.9979538057330727 0.998461257412144 0.9988354860751852 0.9990619520167765 0.9990481935760587 0.9983170508765463 0.9945527864662201 0.9776915909283824 0.9129451850893678 0.7217978244275239 0.34971959653789986 2.5695266420645884e-05 0.999999502756923 0.9999994979211929 0.999999494244846 0.99999949111007 0.9999994875686977 0.999999481957999 0.999999471431592 0.9999994506999049 0.9999994093254817 0.9999993238018787 0.9999991316268788 0.9999986260973657 0.9999969042150418 0.9999884920055934 0.9999265216504132 0.9992687569505772 0.9906424700781411 0.8823233420424726 0.003539099950500994 8.825087384679992e-06 2.1651562893717208e-08 9.33783379177293e-05 0.9708297188302152 0.975451740698329 0.9788030151532549 0.9820204740856363 0.9852008131726951 0.9882274095825366 0.9909574441997298 0.9932854869248103 0.9951610949544796 0.9965801955034354 0.9975560741413273 0.9980387466948304 0.9976001194168136 0.9940216190549539 0.9776017529647882 0.914547329972349 0.7269401073807633 0.35596780877887296 2.4721238812739203e-05 0.999997407447532 0.9999973963967885 0.9999974080812264 0.9999974400792476 0.9999974884357047 0.9999975467593764 0.999997605399407 0.9999976483971481 0.9999976478626634 0.9999975482218589 0.9999972159975367 0.9999962478823048 0.999993034780312 0.9999787279361587 0.9998851415714547 0.9990051462802416 0.9886990717474871 0.8716565331833935 0.003359209123922196 8.107209663698953e-06 1.813015507165107e-08 7.100881954246842e-05 0.9091657766097455 0.9157852820383429 0.9243437843710216 0.93478935185447 0.94616330948964 0.9574247525708863 0.967730774606243 0.9765410116777744 0.98361857184858 0.988970079182944 0.9927488483518423 0.9951127575867934 0.9958762516740024 0.9931585604029939 0.9780050733965495 0.918213217213526 0.7365010221323306 0.36690236075996835 2.3912942431179463e-05 0.9999876207855484 0.9999876277872598 0.9999878073527932 0.9999881457828804 0.9999886221026172 0.9999892052661474 0.9999898531400976 0.9999905082905436 0.99999108816108 0.999991457830983 0.9999913454099364 0.9999900278318411 0.9999848854130414 0.9999627376793703 0.9998308315093696 0.9987116140158115 0.9867885788923725 0.8621490741085089 0.00320389057608847 7.501582986536195e-06 1.4816238482018596e-08 3.93741857722981e-05 0.6740945557236537 0.6900138665353149 0.7192661949546119 0.757871631254558 0.8008537598306407 0.8436141354533152 0.8826604794477851 0.9158585177203421 0.9423502801334772 0.9622621776727815 0.9763423207915589 0.9855773782876659 0.9906857776617299 0.9907747755750902 0.9783329531621721 0.9236015931824961 0.7503720364619634 0.38289099905685503 2.3272320474811395e-05 0.9999453888227808 0.9999456484128304 0.9999468742142223 0.9999489920845742 0.999951883417223 0.9999553915616461 0.9999593134816048 0.9999634090303455 0.9999673877804817 0.9999708790474684 0.9999733081660411 0.9999734410467878 0.9999673487094971 0.9999369307984939 0.9997643900249518 0.9984157281895604 0.9850974469228017 0.8544736131309023 0.003075906427092377 7.006334909321233e-06 1.2065067800305355e-08 5.569863425416019e-07 0.018041580152564154 0.018525267351028187 0.09189499483545133 0.20597783933174044 0.3402008298122392 0.47761456013391357 0.6054881326987771 0.7157964533218859 0.8049092700085134 0.8726523899034223 0.9211455343726331 0.953671020500856 0.9735932268001818 0.9827464810587732 0.9766970612600252 0.9297594929750999 0.7681097426140231 0.4042669550910269 2.2796606676496048e-05 0.9997759545164201 0.9997777781147461 0.9997841124282525 0.9997945796241288 0.9998086186777632 0.9998254846393754 0.9998442630357982 0.9998639316467893 0.9998833812233425 0.9999014198559186 0.9999166518762458 0.9999269114084317 0.9999266647782641 0.9998929974839135 0.9996866255262076 0.9981544736370769 0.9838416022906982 0.8493636251001021 0.002978034822072893 6.621860230553248e-06 1.1464004665280383e-08 1.0934189614514737e-05 0.26202228895827145 0.2501237017149883 0.229283330094961 0.19732489279944454 0.1852461163027802 0.22475610648995756 0.3135720980783608 0.43438784431375016 0.5656475364571296 0.688971264156265 0.7925775522995906 0.871511757812503 0.9259860503969451 0.9584459423487742 0.9678203407884252 0.9342343207055581 0.7886380727448382 0.43125793906291543 2.2478048802361235e-05 0.9991417701205819 0.9991508602890625 0.9991782344190591 0.9992222961613079 0.9992807128950658 0.9993504566869045 0.9994278801191714 0.9995089833596181 0.9995895800359411 0.9996655319957428 0.9997328072681839 0.9997869516372102 0.999820185507332 0.9998056879055585 0.99959092651208 0.9979646770277202 0.9832364383245717 0.8475749394947851 0.0029132886123134413 6.347772048328913e-06 1.115875051376589e-08 1.9837949475761628e-05 0.3782630668876518 0.3644109228801715 0.34888422590107787 0.331151567895451 0.3093729810442124 0.2812093466569401 0.27063833897550854 0.3007941959518444 0.3767752629765504 0.4871302639946169 0.6119138320464618 0.7311735713172964 0.8304453670093686 0.9021077720495627 0.9414219389228918 0.9316242290112137 0.809597174164585 0.4638361402467004 2.2303488740523902e-05 0.9969274453024108 0.9969646275849411 0.9970670509260111 0.9972291440097907 0.997442795423864 0.9976975015941024 0.9979807210403605 0.9982785323441522 0.9985764382557022 0.9988603376691548 0.9991171884005422 0.9993352972936365 0.9995017020025715 0.9995863523398296 0.9994357145096538 0.9978603988219222 0.9834518324101783 0.8498225798006411 0.002884586320311132 6.183489563391387e-06 1.1020100365780012e-08 2.5830638015826357e-05 0.4246570113376787 0.404705062022445 0.3871184964412124 0.3716055206350956 0.35732259310475933 0.3428107301241642 0.3216860028847088 0.3055278605221448 0.31467044310353504 0.3635662034788023 0.45283527594395057 0.5696266607441556 0.6937005850892266 0.8046338522151878 0.8852009240817079 0.9129078342684007 0.8263719767918091 0.5013432085405195 2.2253456857137355e-05 0.9897522345954866 0.9898809364991651 0.9902153053760866 0.9907390564638684 0.9914292077822253 0.9922552900457217 0.9931805190982766 0.9941633947006885 0.9951595516492934 0.9961244101228719 0.997016119848129 0.9977981084176055 0.9984389652507178 0.998899390952775 0.9990358192455631 0.9977690130231666 0.984542445534708 0.8567380862380838 0.0028950740506901267 6.126162588646082e-06 1.1010688037701767e-08 2.9880574682482688e-05 0.44674481957816703 0.41813317353121365 0.3954846057754941 0.37781528327203384 0.36409409477092647 0.3532479518176828 0.34287332758069583 0.3287434954780104 0.3171936656638632 0.322756079292003 0.3607203765375654 0.4381468704887257 0.549081921667491 0.6757510120255682 0.7930559068772725 0.8675316361230825 0.8313696836198168 0.541929825411874 2.2301248065718868e-05 0.9684329626409822 0.9688142690699418 0.9697569739136784 0.9712285099479905 0.9731751783720184 0.9755276819327486 0.978198672107966 0.9810861870939491 0.9840753509432442 0.98704418084375 0.9898705439270861 0.9924401004919331 0.9946534825501533 0.9964228608002463 0.9975982520991715 0.9972756536256024 0.9863220807260354 0.8685771797886189 0.0029406032536909168 6.155505267446659e-06 1.1066246983768214e-08 3.2707838379841025e-05 0.45919068189065393 0.4193989316292839 0.3901659765107361 0.36880052952437364 0.3534870644123106 0.34287711789021036 0.3358403332140449 0.32898790346019813 0.32080144508866 0.3152053975792021 0.32300759783000893 0.3583642624772777 0.4314626081218783 0.5413966755492199 0.6720939639436183 0.7883997486972866 0.814471443412467 0.5814482309006892 2.2412145036750555e-05 0.9116494644197262 0.912582934652929 0.9148200627977051 0.9183072501824794 0.9229637885444231 0.9286746069889436 0.9352889560065188 0.9426183197214572 0.9504350814060116 0.9584756517581006 0.9664489710693215 0.9740503832937659 0.9809797428170407 0.9869565175111901 0.9916952799391444 0.9944002725275827 0.9877190718310573 0.8858369381093022 0.0030416088646328054 6.256516631639886e-06 1.1140958163532808e-08 3.4716514417767075e-05 0.4669076885521669 0.4125395004677338 0.37536114106389074 0.3495436103709563 0.3318154285411914 0.32027454789458587 0.3136134851546448 0.3098932540791451 0.3069467532869374 0.30414298930779915 0.30442890296965314 0.3164202092223373 0.35322796697898645 0.4271313813058046 0.5411268811465844 0.6768207455065598 0.7651360809573502 0.6133116352973145 2.2545946852499433e-05 0.7812460842299032 0.7830374668855863 0.7872413641542508 0.7938178158334943 0.8027196122505695 0.8138546598535953 0.82709147287993 0.8422338293764426 0.8590131535419221 0.8770710454388627 0.8959446924565232 0.9150703231505194 0.9337810648785695 0.9513615407609601 0.9669685978418844 0.9795906526761547 0.9834768306823083 0.9041039340114914 0.0030358241731192528 6.14674491419889e-06 1.5454002472951005e-08 3.6221318637519715e-05 0.47187831271289205 0.39699487434311687 0.3506701755124191 0.3195977247240953 0.2988150825411245 0.2858