# vtk DataFile Version 3.0
vtk output
ASCII
DATASET RECTILINEAR_GRID
DIMENSIONS 41 41 1
X_COORDINATES 41 double
0 1 2 3 4 5 6 7 8 9 10 11 12 13 14 15 16 17 18 19 20 21 22 23 24 25 26 27 28 29 30 31 32 33 34 35 36 37 38 39 40 
Y_COORDINATES 41 double
0 1 2 3 4 5 6 7 8 9 10 11 12 13 14 15 16 17 18 19 20 21 22 23 24 25 26 27 28 29 30 31 32 33 34 35 36 37 38 39 40 
Z_COORDINATES 1 double
0
POINT_DATA 1681
FIELD FieldData 1
Concentracao 1 1681 double
1.0 1.0 1.0 1.0 1.0 0.9999999999999999 0.9999999999999999 0.9999999999999998 0.9999999999999999 0.9999999999999976 0.9999999999998976 0.9999999999979245 0.9999999999783541 0.9999999998701379 0.9999999994973272 0.9999999982833685 0.9999999917980655 0.999999919204988 0.9999994847470844 0.9999990843106888 0.999998682581922 0.9999982825329545 0.9999982805716838 0.9999982763336664 0.9999982649137975 0.9999982266914806 0.9999979698150113 0.9999945906369578 0.9999451178601751 0.9994134992775384 0.9956450518512804 0.9779429512406888 0.9212694640592619 0.7942854963796925 0.5913946274609188 0.35821335953748734 0.16605337292361064 0.05469626739669535 0.01135563174440564 0.0011174871042333686 8.489787445406297e-09 1.0 1.0 1.0000000000000002 1.0000000000000002 1.0000000000000002 1.0000000000000002 0.9999999999999996 1.0 0.9999999999999992 0.9999999999999962 0.999999999999856 0.999999999996767 0.9999999998032856 0.9999999385639412 0.9999941720432634 0.9997615969605725 0.9960991132643137 0.9083728253667858 0.0029315296679820035 6.968175363146156e-05 6.73665626931215e-05 0.001456247177657912 0.9999698364348871 0.999978540995618 0.999984489939537 0.9999876138026809 0.9999894261709621 0.9999869102924774 0.999931105637351 0.9993382691149689 0.995236432362327 0.9763841500064478 0.9171777120211022 0.7867849932327242 0.5816806129371791 0.3493315129208067 0.1604155863688377 0.05231957066398359 0.010753398527270783 0.001047569865530591 7.929496681329009e-09 0.9999999999999998 1.0 1.0 1.0000000000000002 1.0000000000000002 1.0000000000000002 0.9999999999999998 0.9999999999999996 0.9999999999999996 0.9999999999999938 0.9999999999996727 0.9999999999900633 0.9999999979611478 0.9999994496887025 0.9999605931103227 0.9988766245193662 0.9820302042766557 0.8155469561594619 0.0015113657951472933 1.5916875306587102e-06 8.182773927937169e-09 6.508198530691178e-05 0.9999238398732964 0.9999617553951947 0.99997210703295 0.9999781790335636 0.9999816027629838 0.999978517571794 0.9999036591716061 0.9991558738606736 0.9942652486090905 0.972832266792785 0.9082209538192574 0.770940410264176 0.5618190891285141 0.33170682022580283 0.14953889401581832 0.047854653998396966 0.0096497872620161 0.0009224479515954213 6.977471349615084e-09 0.9999999999999998 1.0 0.9999999999999999 0.9999999999999999 1.0 1.0 1.0 0.9999999999999998 0.9999999999999998 0.9999999999999825 0.9999999999987138 0.9999999999446388 0.9999999861908854 0.9999971943365015 0.9998504930274248 0.9966909792863782 0.9605784219729934 0.7305169487893581 0.0012109016831629304 1.1777600590315685e-06 2.8529816556768193e-09 6.29688329269774e-05 0.9998481370832628 0.9999340345071538 0.9999572432159838 0.9999676811625742 0.9999730584175153 0.9999664963467786 0.9998454790770344 0.9987724256407017 0.9923821205160285 0.966438566746143 0.8930889264507721 0.7456098664694215 0.5315770159834243 0.30602150153367685 0.13430547882761662 0.04182419886352441 0.008208995932750313 0.0007642296583108 5.7976950334716794e-09 0.9999999999999996 1.0 1.0 0.9999999999999998 1.0 0.9999999999999998 0.9999999999999996 0.9999999999999997 0.9999999999999992 0.9999999999999039 0.9999999999914837 0.9999999995365535 0.9999999275922961 0.9999893210823806 0.9995678857922159 0.992577894831134 0.9325586114091677 0.6482727022600688 0.0009434606604059922 8.739395344862589e-07 2.473636098053645e-09 6.059818020318395e-05 0.9997452129804271 0.9998987610053288 0.9999385310793709 0.9999553029595021 0.9999619308660969 0.9999419147909508 0.999705642071971 0.9979578125085944 0.9888644857070006 0.9556928658877861 0.8697874446727039 0.7093884450058756 0.49101850955125437 0.2734692540844516 0.11595590774104379 0.03488710940384259 0.006620432775967132 0.0005964976008451064 4.557222081509331e-09 0.9999999999999992 0.9999999999999999 1.0 0.9999999999999999 0.9999999999999997 0.9999999999999996 0.9999999999999997 0.9999999999999988 0.999999999999993 0.9999999999990226 0.9999999999159724 0.9999999953318959 0.9999996672005202 0.9999656634047389 0.998939252955455 0.985679118600269 0.8964607489296185 0.5679919888486152 0.0007404349787244363 6.394949491284467e-07 2.1242627862842874e-09 5.767053072102147e-05 0.9996132450758045 0.9998547887390259 0.999915300737266 0.9999381816529223 0.9999392507328037 0.999867274228662 0.9993235313758414 0.9961502108645488 0.9822881547964776 0.9381427611125174 0.8356745368456061 0.6609837993621616 0.4408798905316834 0.23586870309724411 0.09599464880860366 0.027738452086546902 0.005061932728293704 0.0004392271715238376 3.3942087019710238e-09 0.9999999999999991 0.9999999999999998 0.9999999999999997 0.9999999999999997 0.9999999999999997 0.9999999999999992 0.9999999999999994 0.999999999999998 0.9999999999998411 0.9999999999840383 0.9999999989560008 0.9999999520678685 0.9999982710633991 0.9998997207102606 0.9976423237887702 0.9746505187932128 0.8511477733121042 0.48889492580325755 0.0005700207202201508 4.566587403562635e-07 1.8001059990860546e-09 5.422296550830483e-05 0.9994468688042766 0.9997954680321159 0.9998763843498752 0.9998947045564326 0.9998511036928269 0.9995800749001407 0.9981976705623258 0.9920293294701612 0.9700356619062304 0.9102175776617201 0.7878499487452014 0.5998630387848504 0.3829371610172894 0.19561631281297212 0.07601733754750664 0.021000644595630755 0.0036705129430685485 0.0003056173582558185 2.3993427518631426e-09 0.999999999999999 1.0 0.9999999999999997 0.9999999999999998 0.9999999999999994 0.9999999999999987 0.9999999999999932 0.9999999999998508 0.9999999999932004 0.9999999996634789 0.9999999860898716 0.9999995475125231 0.9999883114539646 0.999717311142396 0.9950549918166758 0.9575625421431208 0.7952900393358621 0.4114518788347886 0.00042844155670299956 3.1643740395331536e-07 1.5029469199939219e-09 5.029391744261343e-05 0.9991945263866341 0.9996604400696775 0.9997386931889507 0.9996874995753771 0.9994247808447136 0.9984632841653983 0.9949212580684456 0.9828031741130089 0.9478485990067574 0.8675117365449012 0.724051384698491 0.5270338391077036 0.32017290998403336 0.15545102421396634 0.05746540249214397 0.015130391577297972 0.002526128954305791 0.00020135742059678333 1.6127079360520632e-09 0.9999999999999822 0.9999999999999799 0.9999999999999722 0.9999999999999523 0.9999999999998928 0.9999999999996562 0.9999999999981971 0.9999999999823097 0.9999999996908345 0.999999992730756 0.9999998252535276 0.9999962876291852 0.9999345927380899 0.9990794024861458 0.9898668141119819 0.9315824499402279 0.7277767270120068 0.33649043017958075 0.00031205128698474444 2.115002801535848e-07 1.2324941392015796e-09 4.59236823931775e-05 0.9985610853364204 0.9991162419285076 0.9990746468998808 0.9986895761603812 0.9976190667372815 0.994652575025619 0.9862265833350576 0.9635107748703614 0.9100038958036808 0.8059379860687894 0.6439686920683437 0.44559997680168295 0.25655191673163175 0.1180394683595059 0.04141805000208366 0.010376154093320702 0.001652526613025142 0.00012595027640745926 1.0328955717640761e-09 0.9999999999956816 0.9999999999950733 0.9999999999934468 0.9999999999895575 0.9999999999792576 0.9999999999456226 0.9999999997966083 0.999999998823135 0.9999999893487856 0.9999998670261163 0.9999981202981918 0.9999743670057605 0.9996953297206034 0.9970645198775834 0.9786804668950639 0.8924551238877922 0.6480359236598029 0.2656077455520257 0.00021905292639423865 1.358970745407857e-07 9.893197126099802e-10 4.115688725974411e-05 0.996393202000714 0.9968941036520907 0.9963506992894807 0.9948657323832207 0.991521182929729 0.9838643606948438 0.9661669058524739 0.9272165466677443 0.8507803663439765 0.7236786653127992 0.5503935336179864 0.3606618670096688 0.19634130765857546 0.08549614321756129 0.02845518438239862 0.006780102926216955 0.0010297923202952724 7.503252716928566e-05 6.319079431575087e-10 0.9999999996271961 0.9999999995808407 0.9999999994601801 0.9999999991864437 0.9999999985234151 0.9999999966438504 0.9999999899654134 0.9999999585528322 0.999999760003061 0.9999981666510118 0.9999837361191143 0.9998538006370851 0.9988055996694923 0.9918459637088061 0.9567771722235753 0.8335854747464062 0.5570194249044917 0.20120107138456136 0.0001485587816418393 8.480719751456962e-08 7.747332592674109e-10 3.605387790666792e-05 0.9895111115832339 0.9895791735301626 0.9876554466503633 0.9834725717623383 0.9751888117285414 0.9587943275481434 0.926672022942459 0.8669992453040138 0.7671460845127543 0.6230653873348954 0.44938883689081227 0.2783675220529712 0.1432184053541198 0.059036858422166216 0.01864921075445528 0.004229512111482653 0.0006130884005098178 4.2731243257338516e-05 3.7030000500024554e-10 0.9999999853150138 0.9999999836936214 0.9999999795565924 0.9999999705870971 0.9999999503688517 0.9999998990566904 0.9999997444702268 0.9999991706915496 0.9999965179878518 0.9999817445226165 0.9998901062328809 0.9993168402832262 0.9960277005314547 0.9801160089702146 0.92011645353363 0.7570422529649502 0.4632289009647113 0.15043400075095917 0.00010140482823504463 5.399593951659047e-08 5.898813581232342e-10 3.0710730920868165e-05 0.9716039503017291 0.9705551370822838 0.9658060932777655 0.9565445688046676 0.9398915416473267 0.9105711645316185 0.8603683879209709 0.7794187466465625 0.6613228108040671 0.5110464990291217 0.34905342751497076 0.20442243764471826 0.0995090739560207 0.03889320696942263 0.011681118410043186 0.002525871780871639 0.0003499743030458674 2.3364479219295823e-05 2.0849884852742275e-10 0.9999996843894977 0.9999996533964518 0.9999995757687766 0.9999994137743267 0.9999990705639282 0.999998276454595 0.999996182383676 0.9999897206315561 0.999966240496498 0.9998681183134388 0.9994221573713746 0.9973808686259725 0.9887066896659317 0.957039448537465 0.8647799827775551 0.6655492941351331 0.37175525518099956 0.10880488893330693 6.71122108532878e-05 3.3350809558304106e-08 4.328674463555264e-10 2.5281336481913378e-05 0.9336952165257764 0.9306668869220881 0.9214569496887894 0.904752793232277 0.8769910420266368 0.8326290366220002 0.7647150498539764 0.6674888292406379 0.5413667794483911 0.3976068924207625 0.25734475186116923 0.14275538548553235 0.06591140040230149 0.024491769074514707 0.0070122445868303004 0.0014492709622771648 0.00019236405760725747 1.2324066747388775e-05 1.1318238982992298e-10 0.9999958211318318 0.9999954572703815 0.9999945597441163 0.9999927514012735 0.9999891259975918 0.9999813863196337 0.9999631485808654 0.9999147896028364 0.9997700798835749 0.9992906587111978 0.9976052481779808 0.9916880058798184 0.9723116459917069 0.917080857400774 0.7890569262196995 0.5640242889742467 0.28728503530227795 0.07602664718720559 4.301246422250935e-05 1.9964914253719064e-08 3.0473678325824463e-10 1.998326853190495e-05 0.8672660096206816 0.8615834625502222 0.8469007318897706 0.8217377015589353 0.782618565424128 0.7250277633217352 0.6447909407994387 0.540915448243666 0.41905711891361064 0.2928241915523705 0.1800268883118778 0.09489454633050726 0.041703670043688384 0.014785196469939787 0.00404911196747357 0.0008023436025400655 0.00010230058516349858 6.304291611871829e-06 5.94558028975707e-11 0.9999628185097719 0.9999599611442219 0.9999530129747025 0.9999394594768183 0.9999136231218217 0.9998622763694447 0.9997525557697695 0.999496727802535 0.9988455280597794 0.9970654807991592 0.9920156512576503 0.9778594983570991 0.9408376547925388 0.8558331981553685 0.6948147942025682 0.45928378423638294 0.21349922815525513 0.0512918889038414 2.6690829810841643e-05 1.1586657756415178e-08 2.049403989735392e-10 1.5072148435598154e-05 0.7689814565326346 0.7605834582625314 0.7408243964527798 0.7085381825928561 0.6611644865742473 0.5961504435782751 0.5125378580361365 0.413155266489847 0.30616657505998485 0.20411026440929791 0.1196418892688969 0.06017982042646217 0.025283662719132245 0.008588752790705152 0.0022588316836257604 0.0004306912504086643 5.291907455235189e-05 3.1454955305173956e-06 3.034578563012176e-11 0.999762786246207 0.9997468030909267 0.9997084627043528 0.9996359015015575 0.9995038315436673 0.9992578010789623 0.9987756307050143 0.9977698273751631 0.9955389911068948 0.990354332455222 0.9780837609466845 0.9496896748772902 0.8885122988182667 0.7721783310035994 0.5877157570193887 0.35864686703157905 0.1525140546852051 0.03341600656252187 1.6040801189593397e-05 6.52260514945385e-09 1.3116037369059626e-10 1.0787063810513771e-05 0.6439992758419706 0.6336236279305141 0.6107543451666629 0.574916399681177 0.5249220535945487 0.46033296593407014 0.3827461217919908 0.29697743907922375 0.21114853418070675 0.13484739917698702 0.07571961882514727 0.036527411730586906 0.01474492406190504 0.004822412033244038 0.0012234443750602554 0.00022537963384341607 2.6782799488875746e-05 1.5403135070035303e-06 1.5114292374974397e-11 0.9988588915607414 0.9987920409234335 0.9986337899642316 0.9983426160721449 0.9978348303618315 0.9969428771973914 0.9953248795005759 0.992263909506045 0.9862365088205354 0.9740443906690535 0.9493243787971171 0.9007922648306748 0.8123387013516643 0.6696166449078627 0.4760975352158686 0.26836092103948 0.10476800256349073 0.021038864794469515 9.345701295566218e-06 3.5663915999526156e-09 7.961146296395897e-11 7.29118206630442e-06 0.5053357064811638 0.4943081969105977 0.47122524404556526 0.43637696746902616 0.38987278412707765 0.3328348538219735 0.2681744141859416 0.20093585724119595 0.13766049916851053 0.08464897158761195 0.04578618929226218 0.021303725856236223 0.008308785830419677 0.0026302722470632344 0.0006469045376385902 0.00011565988143048066 1.334656526162262e-05 7.452661147966778e-07 7.381313239240466e-12 0.9956920196617525 0.9954746279291447 0.9949668849289791 0.9940572991550021 0.9925323892756036 0.9899937649125522 0.9856972036148913 0.9782420596372512 0.9650097907760146 0.9412712489974305 0.8991404217352432 0.8273462999646491 0.7141441820621706 0.5558640413742277 0.36885835874829587 0.19248987612036778 0.06929066222295872 0.012819536730236713 5.286948240732778e-06 1.897181297638417e-09 4.568784367650889e-11 4.635951746618411e-06 0.3694511978951263 0.3591947179452486 0.3386622109349324 0.3086947604395969 0.2702219754377617 0.22507894913822504 0.17633094326543863 0.12814813542207038 0.08504523226332376 0.05064983306120619 0.026554335871605366 0.011991736811823438 0.004546448355729271 0.0014011991044175088 0.00033590880477391634 5.857842117324287e-05 6.593564569066385e-06 3.5889453545916427e-07 3.5531532979901106e-12 0.9868121203023248 0.9862453567741747 0.9849397126683255 0.982658582643344 0.9789710912727444 0.9731260794930189 0.9638320896540592 0.9488976910716874 0.9246997173741155 0.885592032840013 0.8237393944557238 0.7304901604591574 0.6008246837803829 0.44082509192756886 0.2733482250961474 0.13253761412783505 0.0442067539469229 0.007574989398378588 2.9096583709119214e-06 9.83972710953422e-10 2.4714843842074182e-11 2.763195685260131e-06 0.2506691603721314 0.24223000063301797 0.2260165115983553 0.20306546861770094 0.17456976787042855 0.14235101505761344 0.10891441676004296 0.07718790812761767 0.04992643966360749 0.028989808244203663 0.014832130463816552 0.006545383212479304 0.002428373017546799 0.0007332629688511023 0.0001723662548955204 2.94811709421217e-05 3.253183532402967e-06 1.733845965672635e-07 1.6957788705111091e-12 0.9663593050829439 0.9651447901824324 0.9623856175208345 0.9576770649194541 0.9503173446580385 0.939160994550828 0.9223909001343913 0.8972221688443578 0.8595827905285249 0.8040516947963396 0.7245852657790581 0.6168485810922055 0.4825319992179656 0.33390925506551883 0.1940303061155118 0.08780135532478073 0.02727741179209407 0.004352047100626539 1.5620545587907092e-06 4.989447456660204e-10 1.2561198187465496e-11 1.5386368171126145e-06 0.15734641165185687 0.15116185433316512 0.13974360573190747 0.12402207789944523 0.10504709052205616 0.0842252706065035 0.0632756523996957 0.04400413960893684 0.02793257789609585 0.01592838961578743 0.00801245460769806 0.0034809287862265087 0.0012729261270794986 0.0003792072973764314 8.798184317438789e-05 1.4850317505528166e-05 1.615671780760795e-06 8.475424051471289e-08 8.077137175522936e-13 0.9268211911573223 0.9246388339000661 0.9197471046027148 0.9115830185486888 0.8992118977063631 0.881202065832145 0.8554628824571491 0.8191027728259126 0.7684321342397972 0.6993862784472624 0.6087993842842598 0.49678146763643394 0.3697387127153358 0.24188689826072746 0.13224740128078658 0.056133062006241165 0.016331560639908354 0.0024389387564905307 8.20536408597052e-07 2.480954446120753e-10 5.974964433725913e-12 7.973506776193459e-07 0.09108897436569048 0.0870392060752578 0.07985483865172291 0.07020924733297346 0.05883279875031844 0.04662659346367234 0.03461224337875267 0.023788320264811463 0.014933170757642908 0.008430122380263525 0.004203277945736191 0.001812208811626926 0.0006583592581225805 0.0001949711129134587 4.4975956686887386e-05 7.543642368524413e-06 8.144954216815362e-07 4.2309558012597045e-08 3.8683947286353217e-13 0.8615145730763816 0.8581669244999738 0.8507709343767599 0.8386808877021398 0.8208744937400905 0.7958793687062847 0.7617305369756788 0.7160052548233846 0.656096400095294 0.5799155666935216 0.4871983424690172 0.3812932733309844 0.27060437269264115 0.1679906052951656 0.0868365180981241 0.034762339441964225 0.009524614809302686 0.0013383822417688692 4.2332984496208457e-07 1.214285062680905e-10 2.6468070071950637e-12 3.826976324527464e-07 0.048441301990641464 0.046071036849994 0.04204034327963538 0.036750903936322014 0.03062040990061941 0.024137464144458266 0.017833477514030555 0.012210194537226375 0.007645022109047529 0.00431017588994973 0.0021491153256260834 0.0009276704305017984 0.00033770653468266984 0.00010025960478357678 2.3182137150940225e-05 3.89419483664326e-06 4.204287051596982e-07 2.1783251752998216e-08 1.8789552872157714e-13 0.7679596185626844 0.7635169228297082 0.7538504399127978 0.7383525781927816 0.716107451319594 0.6858862740027999 0.6462078964115404 0.5955097235862985 0.532551343149684 0.45711698647401683 0.3710353124135351 0.27916173112749987 0.1896099364483467 0.11222960339745143 0.05515103898512878 0.020944189104825362 0.0054351869018460066 0.0007224216931204223 2.1546496785119335e-07 5.875912432782114e-11 1.0847042572575937e-12 1.6900594057398904e-07 0.023532031599485467 0.022297522196917254 0.02029362212749582 0.017718586559078396 0.014767739373714797 0.011663834894901028 0.008648633224211163 0.005952732912092751 0.0037527831393404138 0.002133594783653967 0.0010742326008406605 0.00046872868602480377 0.0001726098673298541 5.18512572871036e-05 1.2126942336125776e-05 2.058520026127891e-06 2.2418492855131757e-07 1.168582377276407e-08 9.3469170987436e-14 0.650274814421509 0.6451168935334481 0.6340755002273653 0.6166941012517396 0.5923170631569575 0.5601428805927685 0.51933983629036 0.46927034030409476 0.4098750266334459 0.3422144305651739 0.2690873133932275 0.19536857961142964 0.1276046029269904 0.07241581667766733 0.03403643481817731 0.012337929094938232 0.0030506131032390477 0.0003855993887502433 1.0875214633929797e-07 2.8254497728696848e-11 4.0751345195222826e-13 6.803530950969682e-08 0.010354772380910857 0.00978781966201412 0.00891671498238952 0.00781943948454065 0.00656717551061227 0.005242233265208746 0.003938882398683994 0.0027534975718179018 0.001766483783716725 0.0010236648558228036 0.0005260160727313699 0.00023447037421347444 8.825499887037794e-05 2.7101032054063258e-05 6.476736337420319e-06 1.1222796698615995e-06 1.2455047754120294e-07 6.599143091677318e-09 4.814864378668794e-14 0.5189551692584848 0.5136691218763841 0.5025581685519348 0.4853599491532376 0.4617362222300324 0.43132798779221887 0.3938906183321432 0.34948945499004835 0.2987909333659878 0.24340168789553 0.186148948289329 0.13106335583144696 0.08279288828799908 0.04533500607133194 0.020516321752815845 0.007146137430950806 0.0016941028398668309 0.0002047866252156003 5.476197391389029e-08 1.3581079630648923e-11 1.3858384264011557e-13 2.462815576344827e-08 0.0040748617432560886 0.0038492313612144883 0.003526241763048772 0.0031279617268980538 0.002671244646423931 0.0021777264925104266 0.0016770503164984327 0.0012048695249321359 0.0007960847583012101 0.0004758602633437877 0.00025250922483730295 0.00011631741623008845 4.526320628254019e-05 1.4369633570926333e-05 3.5489183443659475e-06 6.349579764110855e-07 7.265512870433998e-08 3.9606209805127686e-09 2.599557184119013e-14 0.38789954633544893 0.38309027973168064 0.37317688316673886 0.35807917746470924 0.33771436059536086 0.31205198421263775 0.2812241078236965 0.245659832052673 0.20627725934573612 0.16465106549520303 0.12310322709686004 0.08455367071104651 0.052002887615246046 0.027671849774553288 0.012146502270614788 0.004094950925939235 0.0009371634683240442 0.00010900209780751367 2.7710171466181814e-08 6.572340405790613e-12 4.1916633922385824e-14 7.852792285541431e-09 0.0014059038761468463 0.001330443652417444 0.001233304858412375 0.00111703992349737 0.0009813333928955302 0.000827809275120977 0.0006624346569633974 0.0004959955119497129 0.000342192739163171 0.00021383988747092038 0.00011871112155458792 5.723107743773653e-05 2.331133049142047e-05 7.745882128485847e-06 2.001703208600054e-06 3.745204531371374e-07 4.477398931521123e-08 2.546607224039492e-09 1.489264930821559e-14 0.2701817568423197 0.2662778525974386 0.25840875812196895 0.24660793799120315 0.23093893182726183 0.21153375622684703 0.18866848600350636 0.16284474589497375 0.13489766996059488 0.10606563440694998 0.07800395205695607 0.052629542779883305 0.031753929820662795 0.016552419588230886 0.007105453167305691 0.0023374702443139726 0.0005204249603459995 5.864436724189082e-05 1.4208658673954095e-08 3.2287336452820346e-12 1.1018115456738145e-14 2.134236853561591e-09 0.0004118392611773598 0.00039186722862438094 0.0003709486614029146 0.0003476276038730683 0.0003192139028820704 0.0002834630854725134 0.00023985920641769428 0.00019037294723055022 0.00013937787240136758 9.245870707518219e-05 5.448121101746204e-05 2.78727622110341e-05 1.2044816600721613e-05 4.2452075027809076e-06 1.1634763391732208e-06 2.3083679764435127e-07 2.9258181927497836e-08 1.7637601387443892e-09 9.155881746521884e-15 0.1745756236882593 0.17174385411673304 0.1661794209879601 0.157957609626608 0.14718668281363367 0.1340265082617689 0.11873667265918182 0.10171731149617434 0.0835718068103215 0.06513292194517299 0.04745360809014788 0.03170084612163144 0.018925272624645377 0.009752355401699421 0.004132613016541987 0.0013390523187618417 0.00029265070953095324 3.221073370060045e-05 7.456464834103054e-09 1.6260135423726234e-12 2.462705946175146e-15 4.672479087823316e-10 9.687255157762711e-05 9.324951128324423e-05 9.149680728075224e-05 9.060104040370425e-05 8.907754996987997e-05 8.53423582784224e-05 7.817666095555429e-05 6.721070574910648e-05 5.325382651127906e-05 3.817363096926655e-05 2.4268127221649575e-05 1.3377388469285285e-05 6.2229278472971045e-06 2.3599111373462058e-06 6.958898426246853e-07 1.486015178732251e-07 2.028640119617303e-08 1.3183919108141757e-09 6.091529473183617e-15 0.10416880938400042 0.10233205812308999 0.09883114770232458 0.09373621824566591 0.08713606342997043 0.07914824950694833 0.0699475013652581 0.05978400107981452 0.04901885827122498 0.03813904134523172 0.027750745015164464 0.01852064756440989 0.011047628433059892 0.005686677100541845 0.0024047230784650345 0.0007759392824161242 0.00016826805255113319 1.8272681339332658e-05 4.0516655588765005e-09 8.491858728766821e-13 4.842995711445413e-16 7.369741729413079e-11 1.6375475937797262e-05 1.6149685921715362e-05 1.6924487060326562e-05 1.8425392833434507e-05 2.0227653975570798e-05 2.1746471203831303e-05 2.2320695719061364e-05 2.140509266462266e-05 1.881575478279917e-05 1.4887075574187177e-05 1.0402268446186453e-05 6.282765266424101e-06 3.1958397735871646e-06 1.3239589345484954e-06 4.2647287173656415e-07 9.956265384258649e-08 1.4882730701315894e-08 1.0614709469649436e-09 4.401988606374382e-15 0.05710685361434416 0.05604408355030864 0.05409335605418525 0.05129976454949572 0.04771537190084895 0.04340267333725604 0.03844952642449018 0.032979924275529704 0.027173270375520923 0.021275215052486494 0.015600400630240938 0.010506934090033955 0.006331947624985856 0.0032949128446934936 0.0014081550466244583 0.0004584761492541722 9.997257523417423e-05 1.084969918099412e-05 2.309953456710275e-09 4.659909313319462e-13 1.137998772891328e-16 6.218130723333161e-12 1.4781529790407727e-06 1.5549928441056562e-06 1.9041927571772724e-06 2.5265191443810253e-06 3.395416109349105e-06 4.40827769071208e-06 5.362422661358557e-06 5.9853536362560575e-06 6.031457953905121e-06 5.4061101493335345e-06 4.242079907112373e-06 2.8599317205425142e-06 1.6177611600793923e-06 7.439229357024993e-07 2.659292370625465e-07 6.897511004582216e-08 1.1482443435083807e-08 9.152561551828798e-10 3.4483701625931124e-15 0.02858077699993713 0.02803560240811852 0.027080946636516508 0.025739601199373487 0.02403326147839976 0.021985705657879787 0.019627428855276397 0.017004022931661752 0.014185150429660445 0.011274294900020037 0.008414772874746262 0.005783969341177606 0.0035659252619200782 0.0019018161583782428 0.0008337793790178856 0.00027831003528842234 6.204389968097816e-05 6.843304572572526e-06 1.4023195170705726e-09 2.725867955728716e-13 4.99928556248445e-17 6.291867853951269e-17 6.825015206044515e-12 3.3772963344762104e-09 4.890824864365428e-08 1.5219644145127912e-07 3.430779955145164e-07 6.394224690702765e-07 1.0219782927953014e-06 1.4180263985992388e-06 1.7130804510336449e-06 1.7967360803293032e-06 1.6233477032964797e-06 1.247035576464334e-06 7.987164505631829e-07 4.1456327100188775e-07 1.6715407125757386e-07 4.896865809141346e-08 9.235925963188016e-09 8.37959673464469e-10 2.90746365722613e-15 0.012951666555474157 0.012705806385675998 0.012301408692675807 0.011747121895960376 0.011049132418109774 0.010211658299961613 0.00923898840657315 0.008139659023730593 0.006930904524897002 0.005644964102090551 0.004335329051926339 0.003079146993048968 0.00196948760085735 0.0010936434351847258 0.0005005295879197706 0.00017460701425072353 4.063108458652826e-05 4.656129889090639e-06 9.203633076695247e-10 1.7254517161509744e-13 3.0570641317002916e-17 2.33219698188229e-16 8.959708740644279e-11 6.134282228738743e-11 2.8053049849200605e-11 7.663597972520351e-12 1.1735890642977826e-08 5.492627517565263e-08 1.4232302051650858e-07 2.7265250809752927e-07 4.198249164870035e-07 5.362658977913903e-07 5.741387457868967e-07 5.139931184668234e-07 3.7995423111791255e-07 2.264991004798043e-07 1.0474677420536232e-07 3.5246223588152506e-08 7.664094618654912e-09 8.062408582921064e-10 2.6101782983220464e-15 0.005256707894124908 0.005160455024926131 0.005015606448703742 0.00482458588448637 0.004587854939167782 0.004303864789581115 0.003969534300915311 0.003581852863633393 0.003139581653586719 0.0026465466934798613 0.002115873610491111 0.001573843040732203 0.0010607053896690187 0.0006242612969354314 0.0003043676791048188 0.00011353885676125514 2.8295977431544518e-05 3.4663907154738974e-06 6.621420676028115e-10 1.1976562272961608e-13 2.0504662908368616e-17 3.0609146299486257e-15 1.1269356730205118e-09 8.278059015135066e-10 4.706888106804235e-10 2.069019900547407e-10 6.616451471420849e-11 1.888097273966687e-09 1.3015116227264565e-08 4.065536916061556e-08 8.64893030839112e-08 1.4107222547716003e-07 1.8476397646443628e-07 1.9744866529532485e-07 1.7184941494317273e-07 1.1978850767603603e-07 6.46423775164685e-08 2.541854398883945e-08 6.4873822486467704e-09 8.065933987414847e-10 2.4645822092818134e-15 0.001883044040917172 0.0018509984874576781 0.001808919554141507 0.001757290937050377 0.0016956080233071608 0.0016222279099818327 0.0015343411360344216 0.0014282739513259417 0.001299915670655526 0.0011458674572352636 0.0009653005203332024 0.0007627835791780349 0.0005508518172537802 0.00035044468242412984 0.00018627617946233177 7.632744708641862e-05 2.101636839974657e-05 2.8522563424936906e-06 5.270621222081704e-10 9.193196041019124e-14 1.5239641518685373e-17 1.9742295951531865e-14 6.972570061663359e-09 5.274137234002532e-09 3.274114211800814e-09 1.6976633681508336e-09 7.320912765752021e-10 2.531230539019623e-10 7.486726297530669e-10 4.523427994266704e-09 1.4646745841485831e-08 3.214965431998807e-08 5.326337716355397e-08 6.96382181367402e-08 7.282739334805646e-08 6.046503614773913e-08 3.8759820775394176e-08 1.813492711035214e-08 5.536339779443901e-09 8.303342789584843e-10 2.4175463105847336e-15 0.000583484954954631 0.0005746604943511754 0.0005655660534486163 0.000556280831229728 0.0005465810317503378 0.0005357935275367532 0.0005227175874993654 0.0005055749266265539 0.00048193733438030534 0.0004488672050655627 0.0004034060205891843 0.0003436923988531425 0.00027070699852743376 0.00019017636253774854 0.00011307358990857386 5.248805856703282e-05 1.6559032467948535e-05 2.6014613409232396e-06 4.6510296684103857e-10 7.807839817036188e-14 1.2659492649368545e-17 8.220820320133677e-14 2.7902550354127737e-08 2.139744712181263e-08 1.3913255800997081e-08 7.858072149190856e-09 3.892235267396415e-09 1.68421627245171e-09 6.585873837571838e-10 5.967036415820806e-10 2.084486223965119e-09 6.2707082625564735e-09 1.353294291843443e-08 2.2165151207528375e-08 2.842264267873838e-08 2.8644177285561665e-08 2.2227218084368397e-08 1.2617741812700602e-08 4.703669285736555e-09 8.709650761748125e-10 2.4354313417865293e-15 0.00015201728444805163 0.00015010574056899606 0.0001489907905657292 0.00014873286815768116 0.00014931351059308069 0.00015062974408367765 0.00015242508056293935 0.00015423989726455386 0.00015529130866353156 0.0001543809704447138 0.00014984455246465562 0.00013970267747219188 0.00012220694803870757 9.694656214156812e-05 6.629827069275027e-05 3.609003057738582e-05 1.3619326318596145e-05 2.599555404132032e-06 4.484959893355679e-10 7.223232997126987e-14 1.1760579433982354