# vtk DataFile Version 3.0
vtk output
ASCII
DATASET RECTILINEAR_GRID
DIMENSIONS 41 41 1
X_COORDINATES 41 double
0 1 2 3 4 5 6 7 8 9 10 11 12 13 14 15 16 17 18 19 20 21 22 23 24 25 26 27 28 29 30 31 32 33 34 35 36 37 38 39 40 
Y_COORDINATES 41 double
0 1 2 3 4 5 6 7 8 9 10 11 12 13 14 15 16 17 18 19 20 21 22 23 24 25 26 27 28 29 30 31 32 33 34 35 36 37 38 39 40 
Z_COORDINATES 1 double
0
POINT_DATA 1681
FIELD FieldData 1
Concentracao 1 1681 double
1.0 1.0 1.0 1.0 1.0 0.9999999999999999 0.9999999999999999 0.9999999999999998 0.9999999999999999 0.9999999999999997 0.9999999999999992 0.9999999999999987 0.9999999999999984 0.9999999999999982 0.999999999999998 0.9999999999999324 0.9999999999810887 0.999999995332862 0.9999995662556008 0.9999991672385343 0.9999987670278784 0.9999983695271026 0.9999983694324088 0.9999983692891301 0.9999983690360749 0.9999983686679902 0.9999983681560752 0.999998367466281 0.9999983665442301 0.9999983653050688 0.9999983635474613 0.9999983529592339 0.9999978687062692 0.9999830796580604 0.999720533798253 0.9968596220297608 0.9770722336420679 0.8895442301058014 0.6481195623535392 0.26660768061923196 9.452926558144224e-06 1.0 1.0 1.0000000000000002 1.0000000000000002 1.0000000000000002 1.0000000000000002 0.9999999999999996 1.0 0.9999999999999992 0.9999999999999988 0.9999999999999982 0.9999999999999978 0.9999999999999976 0.9999999999999963 0.9999999999826013 0.9999999669111876 0.9999863896598734 0.9940355705540695 0.00907728222805459 0.00019602759146242766 0.00017962788183269768 0.003885303709695796 0.9999699969062268 0.9999786841667242 0.9999846318241224 0.9999877929495883 0.9999899108396617 0.9999914041434445 0.9999925296885525 0.9999934167089265 0.9999941425808588 0.9999947463052019 0.9999947602473794 0.9999795611849109 0.9997051295095741 0.9967434002951626 0.9764624662106763 0.8875906436832682 0.6446217116518228 0.26389672291573624 9.34978619805483e-06 0.9999999999999998 1.0 1.0 1.0000000000000002 1.0000000000000002 1.0000000000000002 0.9999999999999998 0.9999999999999996 0.9999999999999996 0.9999999999999989 0.9999999999999987 0.9999999999999984 0.9999999999999983 0.9999999999999889 0.999999999880072 0.9999998400498424 0.9999337683889966 0.9877242036176953 0.005727923484099722 1.6968464812501074e-05 8.071573680971088e-08 0.00017853904156044773 0.9999240130059512 0.9999619152315238 0.9999722743685031 0.9999784079541035 0.9999823042594597 0.9999850836705768 0.9999871836764427 0.9999888494344589 0.9999902207097089 0.9999913743622046 0.9999917898094858 0.9999750510702039 0.9996742759392834 0.9964984123221534 0.9751961558165633 0.8836123896852668 0.6376237355546966 0.25856565549138544 9.17436227360102e-06 0.9999999999999998 1.0 0.9999999999999999 0.9999999999999999 1.0 1.0 1.0 0.9999999999999998 0.9999999999999998 0.9999999999999991 0.9999999999999989 0.9999999999999986 0.9999999999999986 0.9999999999999485 0.9999999995357769 0.9999995144941423 0.99984895304738 0.98145119789031 0.005539150115480323 1.5972651923102648e-05 4.705016414873626e-08 0.00017440634349882877 0.9998483411459651 0.9999342286974554 0.9999574629418251 0.999968041812904 0.9999744171304655 0.9999787399950232 0.9999819292417791 0.9999844186828061 0.999986448201835 0.9999881467497542 0.9999888814481538 0.999969068120085 0.9996232966891877 0.9960973130017057 0.9731833188096348 0.8774645929289121 0.6270974321252136 0.25074722841909486 8.92951088690299e-06 0.9999999999999996 1.0 1.0 0.9999999999999998 1.0 0.9999999999999998 0.9999999999999996 0.9999999999999997 0.9999999999999994 0.9999999999999994 0.9999999999999993 0.9999999999999993 0.9999999999999983 0.9999999999998065 0.9999999986279167 0.9999988752184086 0.9997306672898552 0.974798469032745 0.005214426667744169 1.5066584267462253e-05 4.5015834853050796e-08 0.00017200021300284765 0.9997455320064508 0.9998990908477083 0.9999389773278194 0.9999562453732574 0.9999658806425803 0.9999721408573873 0.9999766107463051 0.9999800229923379 0.9999827600767169 0.9999850220446401 0.9999859620110475 0.9999607504379137 0.9995440892505033 0.9954955032377159 0.97028770409439 0.868953644804585 0.6130353852907424 0.24063840115222032 8.61901916917502e-06 0.9999999999999992 0.9999999999999999 1.0 0.9999999999999999 0.9999999999999997 0.9999999999999996 0.9999999999999997 0.9999999999999988 0.9999999999999986 0.9999999999999979 0.9999999999999974 0.9999999999999971 0.9999999999999959 0.9999999999993742 0.9999999965452221 0.9999977485476549 0.9995662822971042 0.9676184211133881 0.004979275940452217 1.4096730824880036e-05 4.2406811714335535e-08 0.0001690522090166009 0.9996144045857747 0.9998561483771943 0.9999174104878354 0.999942952632578 0.999956659894482 0.9999652399952944 0.9999711935158547 0.9999756367701851 0.9999791389712692 0.9999819859538227 0.9999829226598939 0.999948541250459 0.9994232525573701 0.9946257347968215 0.9663198526333145 0.8578422103094857 0.595458429416215 0.2284989594125225 8.247815894423511e-06 0.9999999999999991 0.9999999999999998 0.9999999999999997 0.9999999999999997 0.9999999999999997 0.9999999999999992 0.9999999999999994 0.999999999999999 0.9999999999999988 0.9999999999999982 0.9999999999999979 0.9999999999999979 0.9999999999999969 0.9999999999981559 0.9999999920918153 0.9999958399497444 0.9993410708225998 0.9596893342318036 0.0047314936154178614 1.305467739549775e-05 3.928681320105117e-08 0.00016558849409110425 0.9994561750842528 0.9998066140681694 0.9998931829431346 0.9999284436593266 0.9999468620573502 0.9999580936767147 0.9999657058110328 0.99997127547566 0.9999755934293715 0.9999790345065714 0.9999795496771572 0.9999295913102177 0.9992389405971976 0.9933894521438522 0.9610334353062875 0.8438600392679174 0.5744409811795932 0.21464374142239181 7.822043878744948e-06 0.999999999999999 1.0 0.9999999999999997 0.9999999999999998 0.9999999999999994 0.9999999999999992 0.9999999999999989 0.9999999999999992 0.9999999999999982 0.9999999999999979 0.9999999999999973 0.999999999999997 0.9999999999999967 0.9999999999946595 0.999999982826432 0.9999926730009921 0.9990333938787507 0.9508330883455899 0.004478544676564616 1.1971606736625645e-05 3.596641121568027e-08 0.00016164709373393067 0.9992721660356669 0.9997513877253381 0.9998668972862842 0.9999130299172434 0.999936665904474 0.9999508002049552 0.99996020483677 0.9999669726712788 0.999972142654605 0.9999761547322588 0.9999753764009661 0.9998986147928465 0.9989557518296327 0.991645486567378 0.9541144387586903 0.8267158447749751 0.5501267972009719 0.19943466297144477 7.349134074320374e-06 0.9999999999999992 0.9999999999999998 0.9999999999999999 0.9999999999999997 0.9999999999999994 0.9999999999999993 0.9999999999999986 0.9999999999999984 0.9999999999999979 0.9999999999999973 0.9999999999999967 0.9999999999999959 0.9999999999999849 0.999999999978992 0.9999999632563127 0.9999874387387874 0.9986125380228358 0.940824546284514 0.004217689190431144 1.087336930153428e-05 3.2576906977700754e-08 0.00015726541716485758 0.9990640467488758 0.9996914804138911 0.999839095507637 0.9998970294581853 0.9999262526835716 0.9999434659564281 0.9999547528129018 0.9999627648066205 0.999968804550666 0.9999732874972148 0.9999693430011458 0.9998456993090715 0.9985167904814976 0.9891964242727839 0.9451831429041809 0.8061413491804579 0.5227545971622941 0.18326914374043604 6.8378559454172924e-06 0.9999999999999988 0.9999999999999998 0.9999999999999994 0.999999999999999 0.9999999999999993 0.9999999999999989 0.999999999999998 0.9999999999999982 0.9999999999999976 0.9999999999999969 0.9999999999999962 0.9999999999999952 0.9999999999997536 0.9999999998348109 0.9999999120499529 0.9999785848139836 0.9980312081193771 0.9294234405875681 0.003950152804861363 9.781144342904139e-06 2.9222912234484327e-08 0.00015248004740598382 0.9988335649073994 0.9996277704288058 0.9998102488890579 0.9998807076104259 0.9999157775866564 0.9999361810140154 0.9999494020281394 0.9999586803436755 0.9999655814787598 0.9999702268561226 0.9999589933515176 0.999752199003868 0.997831641502849 0.9857733424865383 0.9338028262666573 0.7819129842833419 0.49266905408108885 0.16656202372154133 6.298140038443245e-06 0.9999999999999981 0.9999999999999994 0.9999999999999994 0.9999999999999992 0.9999999999999992 0.9999999999999987 0.9999999999999977 0.9999999999999974 0.9999999999999972 0.9999999999999976 0.9999999999999961 0.9999999999999846 0.9999999999962474 0.9999999988181277 0.9999997021823488 0.9999574127998317 0.9971891713205555 0.9163352047787497 0.0036775221467161756 8.716241057642366e-06 2.5994953871306358e-08 0.00014732543589311554 0.9985824723131462 0.9995609548095585 0.9997807011112262 0.9998642530098922 0.9999053476265425 0.9999290058764395 0.9999441840139665 0.9999547292239173 0.999962417508759 0.9999663072729134 0.9999385962487567 0.9995833020451856 0.9967597347075674 0.9810220160062092 0.91949581707583 0.75390457542102 0.4603318813954173 0.14972897522476933 5.740854105203018e-06 0.9999999999999976 0.9999999999999989 0.9999999999999989 0.9999999999999988 0.9999999999999983 0.9999999999999981 0.9999999999999978 0.9999999999999971 0.9999999999999968 0.999999999999997 0.9999999999999938 0.999999999999696 0.9999999999544412 0.9999999927363665 0.9999990105072799 0.9999113993299868 0.9957469586734131 0.8994680766065262 0.003408048226737199 7.744985612990717e-06 2.308855168040783e-08 0.0001418326458227895 0.9983124243236218 0.9994914587038891 0.9997506376347827 0.9998477611440371 0.9998950107349008 0.9999219603696153 0.9999390965157656 0.9999508645412668 0.9999590177159905 0.9999594434007597 0.9998949222558245 0.9992752860396619 0.9950886595380505 0.9744962352025063 0.9017825379153055 0.7221328367212674 0.4263187306301515 0.13316774935217837 5.177404638272072e-06 0.9999999999999968 0.9999999999999981 0.9999999999999987 0.9999999999999983 0.9999999999999979 0.9999999999999979 0.9999999999999983 0.9999999999999968 0.9999999999999967 0.9999999999999928 0.999999999999894 0.9999999999942187 0.999999999551316 0.9999999610607416 0.9999968993700232 0.999818714968784 0.9936111372941141 0.8799202108397554 0.003138448871243321 6.821709416221195e-06 2.0350146142010987e-08 0.00013602846557572856 0.9980248995073874 0.9994193546916803 0.9997200547356582 0.9998312115152901 0.9998847343709154 0.9999149906769808 0.9999340313200692 0.9999467786799956 0.9999541215498976 0.9999433898715614 0.9997983987394892 0.9987155134065879 0.9925113417229082 0.9656646617079263 0.8802380920972809 0.6867994026510713 0.3912996333220165 0.11723689233331991 4.61922238534129e-06 0.999999999999996 0.999999999999998 0.9999999999999986 0.9999999999999977 0.9999999999999972 0.9999999999999969 0.9999999999999967 0.9999999999999943 0.9999999999999793 0.9999999999998352 0.9999999999971693 0.9999999999147743 0.9999999963391848 0.9999998151183314 0.9999908714193494 0.999638704712987 0.9905192526633639 0.8574253828334997 0.0028709944098663756 5.955296526752104e-06 1.7803447532774837e-08 0.00012993459408520383 0.9977210986015674 0.9993442297272359 0.9996886594367743 0.9998143685420691 0.9998742711311212 0.9999077554164426 0.9999283667088357 0.9999409638080197 0.9999429851995961 0.9999007635523826 0.9995863775336669 0.9977146300141323 0.9886067012006686 0.9539406393299187 0.8545605974677505 0.6483225041408303 0.35601077605287357 0.10224200030484544 4.077233695193754e-06 0.9999999999999916 0.9999999999999929 0.9999999999999918 0.9999999999999891 0.9999999999999835 0.9999999999999719 0.9999999999999395 0.9999999999998254 0.9999999999992656 0.9999999999951171 0.9999999999456722 0.9999999990226461 0.9999999748886309 0.9999992149168896 0.9999747322925094 0.9993006769880508 0.9861245879202127 0.8317509273736469 0.0026085153372878457 5.153826781055609e-06 1.5461979478109858e-08 0.00012356703977067928 0.9974015235658039 0.9992647257330588 0.9996554054193774 0.9997962336879967 0.9998624315615687 0.9998985418466838 0.9999191422728647 0.9999272304689353 0.999910062228199 0.9997875888176487 0.9991353074727407 0.9959739783636429 0.9828363744506818 0.938739626173745 0.8246478778867113 0.607343969520465 0.32120890390476087 0.08842079759622726 3.5612714767823365e-06 0.9999999999997915 0.9999999999997743 0.9999999999997293 0.999999999999639 0.9999999999994524 0.9999999999990379 0.9999999999979722 0.9999999999946253 0.9999999999809496 0.9999999999029257 0.9999999992477857 0.9999999911513883 0.9999998536440404 0.9999969997192932 0.9999341805711907 0.998687691933943 0.9799958094060228 0.8027382235250422 0.0023531749568259804 4.421101187860638e-06 1.3329180508072683e-08 0.0001169352518357331 0.9970641703789004 0.9991765414021614 0.9996163131924217 0.9997724978516155 0.9998438772713767 0.9998798982408371 0.9998945835540265 0.9998842620034307 0.9998112280974619 0.9995040397131862 0.9982214078205106 0.9930571172885945 0.9745679114159359 0.919563096552379 0.790664863525718 0.5647045245689537 0.28762425241498596 0.07593781096639116 3.0795753444554035e-06 0.9999999999942981 0.9999999999938326 0.9999999999927079 0.999999999990477 0.9999999999860681 0.9999999999767303 0.9999999999544389 0.9999999998915987 0.9999999996713547 0.9999999986572332 0.9999999922363649 0.9999999356483146 0.9999992685942072 0.9999896381939971 0.9998386302904945 0.9976161729102748 0.9716250408474701 0.7703326716711705 0.0021073858783312457 3.760084822099705e-06 1.1403060002639172e-08 0.00011004135017508962 0.9966972085882511 0.9990646486868168 0.9995560564947015 0.9997260390157124 0.9997978543968049 0.999824551230309 0.9998154955307814 0.999749846198352 0.9995376690437676 0.9988477104498614 0.9964754196737177 0.9883800301165137 0.9631343340679012 0.8960972355566523 0.7530847469425582 0.5213983541001156 0.25591539396663715 0.06488355621946179 2.638426939342994e-06 0.9999999998920004 0.9999999998839425 0.9999999998647613 0.9999999998276028 0.999999999756744 0.9999999996140089 0.9999999992964014 0.9999999984838494 0.9999999959905599 0.9999999863953173 0.9999999382281612 0.9999996172230802 0.9999968381388127 0.9999675477346947 0.9996276464782036 0.9958147095282253 0.9604509482874999 0.7346187647660002 0.0018734213094316677 3.171011458070951e-06 9.67601988364036e-09 0.00010287925483869126 0.996254807021 0.9988780531914987 0.9994212038694198 0.9995978848821594 0.999655767216311 0.9996480838616933 0.9995711206090984 0.9993679946737809 0.9988544985531819 0.997451927065478 0.9933454749971963 0.9812348899589617 0.947926979729717 0.8683073468541391 0.7126885888992867 0.4784940358473905 0.226625230407409 0.05528139046341826 2.241941965624964e-06 0.9999999985192586 0.9999999984191611 0.9999999981847995 0.99999999774137 0.9999999969244164 0.9999999953566158 0.9999999920893112 0.9999999844339964 0.9999999635332171 0.9999998945004378 0.9999996091251168 0.9999981034645092 0.9999880684334822 0.9999075193040925 0.9991913370922425 0.9929075129488558 0.9459022856574455 0.6958442808889205 0.0016529809574187498 2.65241849382116e-06 8.135955866313855e-09 9.543366059811136e-05 0.9955906569725922 0.9984611872587291 0.9990492866071343 0.999213279489998 0.9992233547243518 0.9991263622878135 0.9988914638236822 0.9983978832953448 0.9973136454021858 0.9947212860576159 0.9880854686011055 0.9708544957511956 0.928505967547736 0.8365002005775491 0.6705176655452669 0.4370540901584964 0.20015847749536914 0.04709719519433215 1.8920793710223448e-06 0.9999999846054842 0.9999999836711756 0.9999999815234936 0.999999977555339 0.9999999704857684 0.9999999575288672 0.9999999321266013 0.9999998771821766 0.9999997418949038 0.9999993504090502 0.9999979780956593 0.9999920341817594 0.9999603326331378 0.9997593195726101 0.9983463541056803 0.9884117880326605 0.9274619449843817 0.6544399007140427 0.0014479036836828499 2.201762711989234e-06 6.770251863254705e-09 8.767990798206495e-05 0.9943034274502371 0.9973965633739307 0.9980101640562138 0.9981229311607048 0.9980230718310642 0.99774105309446 0.9971999193316298 0.9961815661397955 0.9941518739358588 0.9897833073851858 0.9797840635235682 0.9565105383903115 0.9047015622443904 0.8013363958319083 0.6277887348022761 0.39805007810447296 0.17677139982843756 0.04025353706270688 1.5888026025161726e-06 0.9999998739722316 0.9999998671856126 0.9999998518758287 0.9999998242655208 0.9999997766575065 0.999999693103143 0.9999995383422997 0.9999992270221691 0.9999985280152502 0.9999967254791129 0.9999912414727015 0.999971171177078 0.999882728692569 0.9994256255129901 0.9968134426757623 0.9817589241429118 0.9047471961570949 0.6110162303018053 0.0012593662425968368 1.814650841561848e-06 5.564167227714509e-09 7.958512297538947e-05 0.9914321913430663 0.9946986401553001 0.9953050070098588 0.9953135648561355 0.9950226959847281 0.994433722674522 0.9934025709327909 0.9915818785049947 0.9881948385345567 0.9814755326299179 0.9674329470840347 0.9376196730640887 0.8766713524795291 0.7637760889761124 0.5857782549269089 0.3622996038518877 0.1565822548166584 0.03464547744560317 1.330400548296177e-06 0.9999991623059351 0.9999991226772332 0.9999990353865177 0.9999988817017909 0.9999986249306149 0.9999981922339288 0.999997431703299 0.9999959995388942 0.9999930373047954 0.999986134585657 0.9999675590412195 0.9999087464057944 0.9996888783182808 0.9987374415026998 0.994206072681851 0.9723462251967501 0.8775961655633921 0.5663492853956265 0.0010882879178597403 1.4863140273996408e-06 4.50442437686467e-09 7.11132756618273e-05 0.9849496616123998 0.9883110157017304 0.9888846003580062 0.9887625033310433 0.9882403028369384 0.9872748379393382 0.9856339320820915 0.9828169728143038 0.97778866385818 0.9683693953045961 0.9500105365649248 0.9138196871812568 0.8448918418005007 0.7249754008021891 0.5457022000535325 0.3304254061593902 0.13959132708630387 0.030155432250173482 1.1138990560920926e-06 0.9999953629398147 0.9999951727792753 0.99999476562706 0.9999940660231958 0.9999929315160433 0.9999910913383274 0.9999880082285867 0.9999825377510945 0.9999720214950066 0.9999495998168062 0.9998953737554838 0.9997439201900586 0.9992527623072397 0.9974317049830792 0.9900422440958989 0.9596202584886891 0.8461404422792755 0.5213370193478709 0.0009352114316046656 1.2113392287621725e-06 3.5788468659662833e-09 6.223624692588542e-05 0.9710687693279835 0.974430586850228 0.9750175877441498 0.9748757008949026 0.9742725736555417 0.973096935107231 0.9710044412942547 0.9673246518241723 0.9607701087324216 0.9488164603147936 0.9265458719941234 0.88497608446851 0.8100663790271517 0.686132874190233 0.5086119004053383 0.302846444246011 0.12571489205214148 0.02666642023578448 9.354905911051904e-07 0.9999781681627442 0.9999774041572812 0.9999758231936855 0.9999731748302626 0.9999690005268101 0.9999624635327184 0.9999519747665716 0.9999343269022909 0.9999025210107196 0.9998397831376714 0.999701499353927 0.9993549993472366 0.9983615561666155 0.99514167140872 0.9837889355737427 0.9431822903945332 0.8108569426432396 0.47695039976052933 0.0008001502497350035 9.838213200584144e-07 2.777289074299479e-09 5.2954724325296636e-05 0.9435349009719711 0.946832157586115 0.9476796375252634 0.9479672063685772 0.9478824322770629 0.9472000410708163 0.9454229818698285 0.9416870207363277 0.9344659519810959 0.9209734055979457 0.8961134283156232 0.8510999738240589 0.7729681742017536 0.6483282814996999 0.47531209680688224 0.2797879174106592 0.11481868302964589 0.024073802970080858 7.909659360282491e-07 0.9999110241196649 0.9999084148705236 0.9999032487005558 0.9998948167830287 0.9998818870405922 0.9998622710916754 0.999831978289979 0.9997833102666398 0.999700353423743 0.9995473413638303 0.9992359552941013 0.9985253502596646 0.9966937174180155 0.9914112779123448 0.9749393587329055 0.9228960470020454 0.7725730048792148 0.4341677649251919 0.0006826908207071111 7.978144878071778e-07 2.091918778125861e-09 4.333178885330171e-05 0.893332891785573 0.8966178336023293 0.8983468831369452 0.900104441948624 0.9019005379529337 0.9033058434586989 0.9035930942309351 0.901650979897628 0.8957077053236691 0.8827778995985682 0.8577333068293684 0.8121676768716921 0.7342258417351869 0.612362368359994 0.4463050481194399 0.261307875874169 0.10675354528251112 0.022294734857935206 6.760825104307844e-07 0.9996814217581851 0.999673791371526 0.9996594830575767 0.9996368220758688 0.9996029654042081 0.9995530141340886 0.9994783321928449 0.9993628536239044 0.999174914719778 0.998847076383713 0.9982231399363105 0.9969077520334636 0.9938122669183649 0.9857395974828304 0.9631130825758933 0.8989737360526237 0.7324335024586714 0.3939171914897011 0.0005821530211570731 6.476642899415687e-07 1.517773713728609e-09 3.353775039678764e-05 0.8095439962209415 0.8130858685830101 0.8168221580644484 0.8218451465042141 0.8278383081847224 0.834032718355723 0.8393451791736231 0.8423186552237665 0.8408832842076573 0.831867214133082 0.8101810203464496 0.767868994171434 0.6940815640931639 0.5785952159282373 0.4217477872205221 0.2473212684655808 0.10138199263700702 0.0212756646252732 5.868520885948191e-07 0.998985447042864 0.9989661944694456 0.9989327201531363 0.9988815891708572 0.9988071302262843 0.998699783428379 0.9985431528715365 0.9983077158754986 0.9979375195722856 0.9973186802572489 0.9962016859714636 0.9939941176481235 0.9891791326318813 0.9776492617596829 0.9481542538404563 0.8720180648912856 0.6918248276951955 0.3570268928170305 0.0004974857011174469 5.279359351026524e-07 1.0517287301191415e-09 2.3902627666418504e-05 0.6823657318266283 0.6866849470174171 0.6939479637845902 0.7045742195660881 0.7177834507194729 0.732319442864613 0.7466035835625005 0.7587025646081138 0.7661493477111635 0.7655295177662345 0.751770366445405 0.7173230847892259 0.6521442016422768 0.5468037812191809 0.40140586067182665 0.23761346386128737 0.09859758403254013 0.02099900870575051 5.197467354674494e-07 0.9970965900180508 0.9970548162607089 0.996989806191662 0.9968953208623497 0.9967614304994875 0.9965715485439838 0.9962979320585728 0.995891740345085 0.9952637414210171 0.9942396558146174 0.9924552830583019 0.989092837398549 0.9821846697626926 0.9667591090882467 0.9302005743167547 0.8430069583066628 0.6522772170396228 0.32419790431046924 0.00042750787082439766 4.337453518067118e-07 6.919502260135526e-10 1.4961405775855475e-05 0.5093233927927779 0.5150019193530587 0.5270648106603641 0.5452392858765744 0.5682702082792003 0.5943949555227117 0.6214863325044981 0.6470531092560681 0.6681274222906395 0.6809302566735644 0.680281684488765 0.6588726951745438 0.6071745392013357 0.5160325765328926 0.384586065283125 0.2318176949358021 0.09832662432487801 0.021488973268029177 4.7182369172130154e-07 0.9924706013164243 0.9923932268813044 0.9922938156778259 0.9921622050761922 0.9919822714517498 0.9917274932287758 0.9913548449210733 0.9907902616857683 0.9899026717393216 0.9884463694514367 0.9859300868887697 0.9813034101663302 0.972172272220937 0.9528304949757358 0.9096936981197523 0.8132147950130721 0.6153602537384164 0.29600427571453847 0.0003709770457533277 3.608317111702698e-07 4.3586618415073855e-10 7.459231733878123e-06 0.3049379419853126 0.3120428632128314 0.3285834106216974 0.35393267458701233 0.3867058755679237 0.42495514115293537 0.4662406757076302 0.5076399953547719 0.545674630173488 0.576086067146664 0.5933702920838994 0.5901513659880384 0.5569990069063091 0.4844676839262963 0.3700252060249929 0.22935071958683217 0.10050908316310135 0.02281599991288835 4.407702495673002e-07 0.9821875372266727 0.9820685591091468 0.9819707712097497 0.9818779789132418 0.981765430493013 0.9815927830104102 0.9812958957234871 0.9807686524994272 0.9798301021780615 0.978154606224796 0.9751206527133699 0.9694604335757734 0.9584190909477077 0.9357459400091684 0.8873069175030933 0.7840829724556845 0.5825924609905757 0.2729207552705336 0.00032665322570912586 3.055564026756286e-07 2.769798253485245e-10 2.2477644680081673e-06 0.1111072885378936 0.1182157473878077 0.1355030750998045 0.1628051070427467 0.19948454372419566 0.2442876428179409 0.29522571929773567 0.3494902852878394 0.40339784688375824 0.45224430391043624 0.48999653365668056 0.5088023388971176 0.4987574051220915 0.44941985575121407 0.35576153258398513 0.2292835000945539 0.10504543346456349 0.025098361021867705 4.248742631085685e-07 0.9613645959960245 0.9612252455001535 0.9612512256811747 0.9614184010969642 0.9616882516139548 0.9620018708621881 0.9622648060764253 0.9623294884750279 0.9619538464761971 0.9607247582518047 0.9578920098829712 0.9519995467215729 0.9400226611958554 0.9153811835089272 0.8637768559678555 0.7570445855835689 0.555374348747124 0.2553797567213176 0.0002935017136158605 2.6494731673685985e-07 2.0105239770809442e-10 2.9628706757339966e-09 0.0002566853092543734 0.0009803708607647624 0.010465705732756346 0.02831767923368589 0.05559606593775712 0.09299658964203866 0.14024807123196822 0.19577633965190955 0.2565370787083243 0.3178826458076125 0.37335606006176086 0.41434832179733294 0.42987333439878994 0.4076457069074636 0.33908057765615346 0.2301741040127691 0.11169860122581557 0.028495685334137474 4.2291040362789764e-07 0.9229074301404884 0.9228206465234824 0.9232259436153235 0.9240869110358622 0.9253488989671569 0.9269263565967889 0.9286850064170652 0.9304230743845704 0.9318247199492006 0.9323780667533405 0.9312045905254491 0.9266893525314934 0.9156309130474468 0.891323649967319 0.8396184240854144 0.7333006950477404 0.5349305416274278 0.2438547695604337 0.00027075173941160135 2.367965254642154e-07 1.7608369447723252e-10 1.4917160169085578e-07 0.01152543552307081 0.010075193680563725 0.00761068825780654 0.004603965899402069 0.006718261812565639 0.019084234922606733 0.04390971653498483 0.08205377636387984 0.1324884005336486 0.1919152331977494 0.25444282553858144 0.3112082863714524 0.3500866415279207 0.3563556970832694 0.31674695978421175 0.22991898701785674 0.11993669340483341 0.03318479556778418 4.339224479055087e-07 0.8582359550015634 0.8583373371806056 0.8595059865728037 0.8616934231080677 0.8648286178315501 0.8688007990764476 0.8734350097840892 0.878471936177717 0.8835143284521126 0.8879445870567996 0.8907572522121198 0.8901988641567564 0.8829643050549136 0.862381882701773 0.814674912543965 0.7135038844601065 0.5222395988776162 0.23896715505254768 0.00025802948643695957 2.1952354091807537e-07 1.641033698148054e-10 5.400046673034205e-07 0.036628692629224385 0.03330675670589333 0.028496170220216777 0.02264127196020194 0.016201649634191385 0.011680400267426647 0.014091075316827175 0.027533114815168243 0.05493148798300619 0.0969321923690959 0.1509680597954996 0.21040808462375882 0.26382636241162505 0.29500191753884125 0.2858015429524028 0.22578776117575028 0.12874962354573832 0.03931204771521328 4.568971151040711e-07 0.7597172595202345 0.7601788306593007 0.7625049558920403 0.7666475701449097 0.7725381220540102 0.7800649023269915 0.7890437180161821 0.7991868264370586 0.8100467640324923 0.8209305730758186 0.8307263669166433 0.8375744371327924 0.8381176935384317 0.8258218323132328 0.7874118966679974 0.6972477400155718 0.5178534511503317 0.24158071205644188 0.0002554033868679553 2.1215731658609486e-07 1.6362074655831564e-10 1.1194881713146903e-06 0.0676875307210998 0.06192253490220166 0.05491606919528241 0.04699402545607186 0.038425211787812386 0.0294597560578649 0.021680070629079205 0.018659704225341547 0.024736052740264584 0.043908732019984575 0.07827039495864686 0.12621379767503774 0.1805449840231755 0.22698513747351243 0.24492190890589935 0.21483351181180693 0.1364919416312898 0.04689704253143959 4.903105400992564e-07 0.6250928078169581 0.626024869502828 0.6296538581580352 0.6359570970918083 0.6449171597602291 0.6564823662938357 0.6705383592062231 0.6868693620514715 0.7050894405089949 0.7245431562661561 0.7441329872192395 0.7619979514292702 0.7748291452676723 0.776328119316055 0.7538089929635102 0.6821556469463681 0.5213731430669497 0.2529156648004403 0.0002634695642930586 2.1419001168413324e-07 1.7211184717306216e-10 1.7643376166687364e-06 0.09694751013265533 0.08802569077591982 0.07877607579136486 0.06930514318162909 0.05966662849944754 0.04989386282220179 0.03993759728808981 0.030680098451299813 0.024936634292173764 0.026716908968933556 0.04038871788261956 0.06896060403877761 0.11147325563278572 0.15973452294949245 0.19580291461564536 0.19476835532665113 0.1408586828564368 0.055703405210060675 5.316500949234511e-07 0.46271397369265854 0.4640565991389357 0.46859480180850993 0.476389058939175 0.48751540718377306 0.5020722578760002 0.5201318610208784 0.5417094518595816 0.5666802551145262 0.5946752720778056 0.6248977250028589 0.6557967253564344 0.6844245171839808 0.705020292603501 0.7057619860889505 0.662132784610216 0.5303870826411099 0.2740262586822444 0.0002821049793336332 2.2447904590561074e-07 1.8610092574761227e-10 2.3772319731953827e-06 0.12106556931044789 0.10803568265033237 0.09625944390013251 0.08533588681354451 0.0750486210747293 0.0652206683214811 0.05569082836646957 0.04585431784612555 0.03656513206572253 0.02998518141437867 0.029648835998791097 0.03996631565234012 0.06448399424093797 0.10242116515763798 0.143637390678866 0.16513360218207693 0.13916958509686092 0.064980730962828 5.76895799761917e-07 0.29419880600014364 0.29564038237657836 0.3001273838536334 0.3077865272611847 0.31882455854566294 0.3335160538460048 0.35219073137307016 0.3752090789295751 0.40290544230541897 0.43549386268663937 0.47289938213826266 0.514448244758375 0.5582596276007947 0.5999342907731348 0.6295616300770506 0.624494059615431 0.5369738036205838 0.306498239639424 0.00031391649563212206 2.421866221281742e-07 2.0282141930391846e-10 2.9059767918896e-06 0.13961173686178535 0.12119336352237653 0.10641955547086407 0.0939828310657794 0.08313247148710329 0.07347307668433697 0.06468934626795453 0.05611462328614687 0.047419883853368226 0.039202279129772574 0.03306651679026484 0.032057737323553805 0.040482794763997416 0.06218120611887932 0.09600764224789386 0.12830947797619519 0.12896783135489873 0.07350654365997872 6.207252806766867e-07 0.14965386467460468 0.1507799152690603 0.15410121062790405 0.15976902778862925 0.16804745548821456 0.17930110928234866 0.194022665211687 0.2128316584442667 0.23648120244687046 0.26582833329571937 0.301743799496465 0.3449234533145088 0.3954054325561894 0.4516196226713048 0.5074800271656759 0.546440588523797 0.5229191057791146 0.3406940792451744 0.000333