# vtk DataFile Version 3.0
vtk output
ASCII
DATASET RECTILINEAR_GRID
DIMENSIONS 41 41 1
X_COORDINATES 41 double
0 1 2 3 4 5 6 7 8 9 10 11 12 13 14 15 16 17 18 19 20 21 22 23 24 25 26 27 28 29 30 31 32 33 34 35 36 37 38 39 40 
Y_COORDINATES 41 double
0 1 2 3 4 5 6 7 8 9 10 11 12 13 14 15 16 17 18 19 20 21 22 23 24 25 26 27 28 29 30 31 32 33 34 35 36 37 38 39 40 
Z_COORDINATES 1 double
0
POINT_DATA 1681
FIELD FieldData 1
Concentracao 1 1681 double
1.0 1.0 1.0 1.0 1.0 0.9999999999999999 0.9999999999999999 0.9999999999999998 0.9999999999999999 0.9999999999999997 0.9999999999999992 0.9999999999999987 0.9999999999999984 0.9999999999999982 0.999999999999998 0.9999999999999976 0.9999999999992506 0.9999999990468349 0.999999571641278 0.9999991726939961 0.999998772547761 0.9999983756376609 0.9999983755858913 0.999998375522789 0.9999983754175603 0.9999983752711289 0.9999983750759882 0.9999983748243297 0.9999983745034146 0.9999983740937779 0.9999983735642528 0.9999983728615686 0.9999983716152696 0.9999983389303586 0.9999965523550397 0.9999395139858703 0.9988576280584214 0.986371784291483 0.8997608912039293 0.5644231841506571 3.626029062858199e-05 1.0 1.0 1.0000000000000002 1.0000000000000002 1.0000000000000002 1.0000000000000002 0.9999999999999996 1.0 0.9999999999999992 0.9999999999999988 0.9999999999999982 0.9999999999999978 0.9999999999999976 0.9999999999999977 0.9999999999999835 0.999999999790973 0.999999461099417 0.9987779693432287 0.012671131500005022 0.00027497936198981026 0.00024390008076344174 0.005267988726124297 0.9999700424939106 0.9999787177710183 0.999984657326947 0.9999878142904745 0.9999899295635796 0.9999914212396838 0.999992545832542 0.9999934324629204 0.9999941585784395 0.9999947721173826 0.9999953043063681 0.9999957440146428 0.9999942999074789 0.9999354648338201 0.9988229247535592 0.9860918564607687 0.898504079013938 0.5620363915890638 3.6095893273704035e-05 0.9999999999999998 1.0 1.0 1.0000000000000002 1.0000000000000002 1.0000000000000002 0.9999999999999998 0.9999999999999996 0.9999999999999996 0.9999999999999989 0.9999999999999987 0.9999999999999984 0.9999999999999983 0.9999999999999986 0.9999999999999046 0.9999999989918584 0.9999973790980154 0.9974831355690915 0.008279156004754065 3.4212421368853265e-05 1.7684225947699665e-07 0.000243960861604941 0.9999240617201772 0.9999619535732662 0.999972306992385 0.9999784363124705 0.9999823296223899 0.9999851068759061 0.9999872053920521 0.9999888702470989 0.9999902413092933 0.9999914061466098 0.9999924219884181 0.999993291550869 0.9999920524867074 0.9999288990328298 0.9987518529894003 0.9855182169592435 0.8959658084734402 0.5572919289822281 3.5832167734575455e-05 0.9999999999999998 1.0 0.9999999999999999 0.9999999999999999 1.0 1.0 1.0 0.9999999999999998 0.9999999999999998 0.9999999999999991 0.9999999999999989 0.9999999999999986 0.9999999999999986 0.9999999999999983 0.9999999999996411 0.9999999969474356 0.9999940213871655 0.9961925933944802 0.008239320815484109 3.366931083787547e-05 1.2191658594242423e-07 0.00023785563631972294 0.999848394853499 0.9999342709525164 0.9999574994971171 0.9999680744545528 0.9999744468122481 0.9999787674387413 0.9999819550370368 0.9999844433819043 0.9999864725217331 0.9999881855999178 0.9999896737973685 0.9999909543983018 0.9999897655629668 0.9999192031685588 0.99863842417968 0.9846205111925427 0.8920912080680163 0.5502194321989304 3.546829188426193e-05 0.9999999999999996 1.0 1.0 0.9999999999999998 1.0 0.9999999999999998 0.9999999999999996 0.9999999999999997 0.9999999999999994 0.9999999999999994 0.9999999999999993 0.9999999999999993 0.9999999999999983 0.9999999999999978 0.999999999998956 0.9999999929406453 0.999989335939651 0.9948197279983084 0.00796658943721624 3.3100645005799176e-05 1.2139629958673491e-07 0.00023541401605378995 0.9997455925051142 0.999899136740879 0.9999390170873875 0.9999562811857877 0.9999659135473556 0.9999721715358921 0.9999766397532697 0.9999800508550066 0.999982787583557 0.9999850708835853 0.9999870373144213 0.9999887200416151 0.9999873758093071 0.9999053542473582 0.9984732519441946 0.9833553043016392 0.8868099538756001 0.5408706653696306 3.5003071880840205e-05 0.9999999999999992 0.9999999999999999 1.0 0.9999999999999999 0.9999999999999997 0.9999999999999996 0.9999999999999997 0.9999999999999988 0.9999999999999986 0.9999999999999979 0.9999999999999974 0.9999999999999971 0.9999999999999959 0.9999999999999958 0.9999999999974045 0.9999999858892302 0.9999828201827845 0.9933336169690861 0.007807068933805209 3.2232035311705206e-05 1.1873024441451894e-07 0.00023244560832604867 0.9996144737598636 0.9998561981099494 0.9999174531717392 0.999942991154236 0.9999566954726223 0.9999652733604919 0.9999712252291121 0.9999756673600319 0.9999791694217907 0.9999820516049825 0.9999845072311815 0.9999865834438139 0.9999847818331454 0.9998857540671892 0.998242627897961 0.9816644927186738 0.880035651311207 0.5293248438248495 3.443532947862061e-05 0.9999999999999991 0.9999999999999998 0.9999999999999997 0.9999999999999997 0.9999999999999997 0.9999999999999992 0.9999999999999994 0.999999999999999 0.9999999999999988 0.9999999999999982 0.9999999999999979 0.9999999999999979 0.9999999999999969 0.9999999999999961 0.9999999999941289 0.9999999739577508 0.9999738885940255 0.9916872256096192 0.007615024370143979 3.106850821630796e-05 1.1400299765730244e-07 0.00022896549110735883 0.9994562547547938 0.9998066679386349 0.9998932284988653 0.9999284846838525 0.9999469000353809 0.9999581294340791 0.999965739948996 0.999971308550368 0.9999756269470925 0.9999791331794162 0.9999820871832383 0.9999845408551299 0.9999818131358633 0.9998579497646163 0.9979275289440566 0.9794736696854074 0.8716727907296967 0.5156891346653224 3.3764137779133464e-05 0.999999999999999 1.0 0.9999999999999997 0.9999999999999998 0.9999999999999994 0.9999999999999992 0.9999999999999989 0.9999999999999992 0.9999999999999982 0.9999999999999979 0.9999999999999973 0.999999999999997 0.9999999999999967 0.9999999999999954 0.9999999999873972 0.9999999541774989 0.999961682394256 0.9898421115442159 0.007405025162536258 2.9683725621772104e-05 1.0811793123064663e-07 0.00022501157565872685 0.9992722579586827 0.999751446079556 0.9998669457591651 0.9999130733774028 0.999936706162803 0.9999508382167954 0.999960241267633 0.9999670081389294 0.9999721802071108 0.9999763273958306 0.9999797835507066 0.9999825830762515 0.999978178048454 0.999818216711728 0.997501731199677 0.9766899488616221 0.8616213272658392 0.500102825173146 3.29891794529467e-05 0.9999999999999992 0.9999999999999998 0.9999999999999999 0.9999999999999997 0.9999999999999994 0.9999999999999993 0.9999999999999986 0.9999999999999984 0.9999999999999979 0.9999999999999973 0.9999999999999967 0.9999999999999959 0.9999999999999961 0.9999999999999948 0.9999999999733883 0.9999999215042074 0.9999449895389014 0.987749496943567 0.007174819756120929 2.8140720107327644e-05 1.0146299758541373e-07 0.00022062001661941137 0.9990641525987813 0.999691543605219 0.9998391470022262 0.9998970753726129 0.9999262952050887 0.9999435061950213 0.9999547915192827 0.9999628027681606 0.9999688500938481 0.9999736455591478 0.9999776011184065 0.9999806866087799 0.9999733764788047 0.9997609518394109 0.9969301018919233 0.9732045132821413 0.849786834275258 0.4827405090250136 3.2111254217909146e-05 0.9999999999999988 0.9999999999999998 0.9999999999999994 0.999999999999999 0.9999999999999993 0.9999999999999989 0.999999999999998 0.9999999999999982 0.9999999999999976 0.9999999999999969 0.9999999999999962 0.9999999999999952 0.9999999999999946 0.9999999999999843 0.9999999999376784 0.9999998662320688 0.9999219700368707 0.9853571696637571 0.006927151442353705 2.6487290832480697e-05 9.435142449076049e-08 0.00021582686231698286 0.9988336862795403 0.9996278388154387 0.999810303555448 0.9998807560665053 0.9999158224382491 0.99993622355126 0.9999494431452354 0.9999587217023546 0.9999656520220582 0.9999710945033221 0.9999755397534956 0.9999787990529074 0.9999665504452668 0.9996778009253102 0.9961666125169871 0.9688912063196303 0.8360893378066034 0.46381107648025577 3.113261711914754e-05 0.9999999999999981 0.9999999999999994 0.9999999999999994 0.9999999999999992 0.9999999999999992 0.9999999999999987 0.9999999999999977 0.9999999999999974 0.9999999999999972 0.9999999999999976 0.9999999999999961 0.9999999999999958 0.9999999999999951 0.9999999999999053 0.9999999997755871 0.9999997327786326 0.9998888740741285 0.982602392718885 0.006664710262060149 2.4767851599184002e-05 8.705030749684067e-08 0.0002106661062016921 0.9985826107544892 0.9995610287897443 0.9997807591805108 0.9998643042114128 0.9999053950488297 0.9999290511136256 0.9999442286948196 0.9999547810542214 0.9999625918906884 0.9999686737790235 0.9999735911061864 0.9999768109780355 0.9999562348963518 0.9995564582690595 0.99515199069298 0.9636114641285423 0.820477205935057 0.4435595567967042 3.0057441096272047e-05 0.9999999999999976 0.9999999999999989 0.9999999999999989 0.9999999999999988 0.9999999999999983 0.9999999999999981 0.9999999999999978 0.9999999999999971 0.9999999999999968 0.999999999999997 0.9999999999999962 0.9999999999999954 0.9999999999999946 0.9999999999992601 0.9999999991677282 0.9999994269501912 0.9998296806052416 0.9788943022598179 0.006393065599965274 2.3081097542144038e-05 8.006908629470523e-08 0.00020516848921559727 0.9983125818144531 0.999491539257699 0.9997507000842857 0.9998478163603197 0.9998950627571672 0.9999220124630783 0.9999391566696305 0.9999509801106691 0.9999596637061823 0.9999663743761739 0.9999717336945204 0.9999744997342259 0.9999399450797718 0.9993791233681592 0.9938122613694013 0.9572205249011118 0.8029417846020586 0.4222668362954009 2.8892151137072577e-05 0.9999999999999968 0.9999999999999981 0.9999999999999987 0.9999999999999983 0.9999999999999979 0.9999999999999979 0.9999999999999983 0.9999999999999968 0.9999999999999968 0.9999999999999956 0.9999999999999961 0.9999999999999953 0.9999999999999857 0.9999999999947279 0.999999997020908 0.9999987716187696 0.9997390048600531 0.9744991975177294 0.006111724770323479 2.1386118396472576e-05 7.316079553767353e-08 0.00019936054631602482 0.9980250847280101 0.9994194503049328 0.9997201317112243 0.9998312846042747 0.9998848129454269 0.9999150914827614 0.9999342089169032 0.9999473000220144 0.9999568489937585 0.9999641770027023 0.999969920042807 0.9999714163301533 0.9999135345425305 0.9991206382821989 0.9920585010409096 0.9495774713925261 0.7835312294091538 0.40024331759014353 2.7645655159779124e-05 0.999999999999996 0.999999999999998 0.9999999999999986 0.9999999999999977 0.9999999999999972 0.999999999999997 0.999999999999997 0.9999999999999967 0.999999999999996 0.9999999999999952 0.9999999999999954 0.9999999999999939 0.9999999999998674 0.9999999999666384 0.9999999898428839 0.9999974019048795 0.999602404537897 0.9693034382667371 0.005822791947300675 1.9705925828335622e-05 6.643916740700939e-08 0.00019326379063206898 0.9977213855945218 0.9993444204181972 0.9996888461308677 0.9998145850150179 0.9998745631081438 0.9999082281165765 0.9999293392496227 0.9999437033780982 0.9999541159366557 0.999962048529307 0.999968044802394 0.9999666658280989 0.9998702279539101 0.9987465708075168 0.9897885211690337 0.9405602767318925 0.7623666452306116 0.3778274037118094 2.6329543580795317e-05 0.9999999999999958 0.9999999999999971 0.9999999999999979 0.9999999999999971 0.9999999999999963 0.9999999999999969 0.9999999999999959 0.9999999999999954 0.9999999999999948 0.9999999999999938 0.9999999999999941 0.999999999999979 0.9999999999986544 0.9999999998117187 0.9999999671059213 0.9999946011162409 0.9993988127374536 0.9631800288927169 0.00552935616600951 1.806460254124296e-05 5.999096668277486e-08 0.00018689407617118823 0.9974024595212404 0.9992656031847608 0.9996563901049533 0.999797465196451 0.999864157332918 0.9999013173259651 0.9999244712644074 0.9999401317152349 0.9999514156964091 0.999959927394344 0.999965862848573 0.9999585012614083 0.9997993058283866 0.9982116979731775 0.9868920975420489 0.9300846377326595 0.7396525275441572 0.3553742524775836 2.4958011410290075e-05 0.9999999999999956 0.9999999999999968 0.9999999999999972 0.9999999999999961 0.9999999999999953 0.9999999999999954 0.9999999999999957 0.9999999999999951 0.9999999999999954 0.9999999999999923 0.9999999999999857 0.9999999999997609 0.9999999999881504 0.9999999990454094 0.9999998988403334 0.9999890042561995 0.9990985486028761 0.955993820822347 0.005233147275459214 1.647630949985584e-05 5.3871969581342966e-08 0.00018026071392023352 0.9970689698518361 0.9991815519452004 0.999622013829561 0.999779518751195 0.9998533513642172 0.9998941984642983 0.9999194919543251 0.9999364983813005 0.9999486679060169 0.9999576754067573 0.9999627968389697 0.9999436251513477 0.9996844922255876 0.9974596941817112 0.9832606384195723 0.9181249971519022 0.7156859026181404 0.33324824780955525 2.3547623769072517e-05 0.999999999999996 0.9999999999999964 0.9999999999999969 0.9999999999999959 0.9999999999999943 0.9999999999999952 0.9999999999999948 0.9999999999999937 0.9999999999999913 0.9999999999999738 0.9999999999998234 0.9999999999971018 0.9999999999113365 0.9999999956292078 0.9999997047519996 0.9999780935681789 0.9986608722482404 0.9476052146046204 0.004936532724669096 1.4956709180951222e-05 4.812607515073455e-08 0.00017336560762473154 0.9967212084998833 0.9990900831392651 0.9995845885536347 0.9997601379794366 0.9998417828817475 0.9998866341332447 0.9999142289215298 0.9999326580488869 0.9999457030174906 0.9999549351560528 0.999957519086909 0.9999160931063158 0.9995023390111734 0.9964250703139458 0.9788019455014491 0.9047391249317281 0.6908612046393433 0.311811591048139 2.2116908995338496e-05 0.9999999999999943 0.9999999999999943 0.9999999999999936 0.9999999999999927 0.9999999999999902 0.9999999999999886 0.999999999999983 0.9999999999999655 0.9999999999999053 0.9999999999996156 0.9999999999974899 0.9999999999714164 0.99999999943271 0.9999999818577677 0.999999182812058 0.9999573953614023 0.9980313760086506 0.9378775825523004 0.004641894241442526 1.3515943153531974e-05 4.277821845422675e-08 0.00016620215178756278 0.9963589786299852 0.9989880890109258 0.9995424445510809 0.9997384024971662 0.999828885731096 0.9998782296655885 0.999908362364835 0.9999282880187756 0.9999420702503343 0.9999507507045686 0.9999471279167627 0.9998657770099163 0.9992211505018423 0.9950385654635271 0.9734595277564444 0.8900878036703118 0.6656629594553614 0.2914163284110176 2.06857074191978e-05 0.9999999999999486 0.999999999999945 0.9999999999999362 0.9999999999999215 0.9999999999998908 0.9999999999998351 0.999999999999712 0.9999999999993986 0.9999999999984369 0.9999999999945576 0.9999999999721643 0.9999999997713473 0.9999999968692799 0.9999999315416025 0.999997857310039 0.999919281569932 0.9971397666733217 0.9266859864017212 0.004350720639036715 1.2161643943964252e-05 3.7832454623231765e-08 0.0001587534072256764 0.9959813745248363 0.998871135945731 0.9994929835674359 0.999712752624872 0.9998135948977289 0.9998681373337965 0.9999010933743246 0.9999224779959359 0.9999364634553563 0.9999426647998009 0.9999256720773675 0.999776485075392 0.99880125653849 0.9932366115784413 0.9672346349445214 0.8744521714300348 0.6406569994302677 0.2723932846379865 1.927447925431541e-05 0.9999999999990649 0.9999999999990055 0.999999999998867 0.9999999999986113 0.9999999999981453 0.999999999997272 0.9999999999954848 0.999999999991355 0.9999999999800434 0.9999999999409879 0.999999999757571 0.9999999984902079 0.9999999849688412 0.9999997645944506 0.9999946831360345 0.9998513429720226 0.9958987993343325 0.9139306831377779 0.004065496252871033 1.0900892535946534e-05 3.329163933871826e-08 0.0001509897777649218 0.9955858021388339 0.9987323157850436 0.9994314899781741 0.9996798794416869 0.9997932790388252 0.9998539799447548 0.9998900047940807 0.9999124500495881 0.9999251842002607 0.999924760054093 0.9998817285357632 0.9996240242260186 0.9981974830755326 0.9909747983423913 0.9602084051124546 0.8582392075534201 0.6164714597245469 0.2550456566285924 1.7903434799147757e-05 0.9999999999862645 0.9999999999854801 0.9999999999837181 0.9999999999805231 0.9999999999749348 0.9999999999648989 0.9999999999456199 0.9999999999045216 0.9999999998031407 0.9999999994976166 0.9999999982940905 0.9999999916223161 0.9999999366728192 0.999999260499966 0.9999875276258927 0.999734442875254 0.9942055055823574 0.8995517169736345 0.00378787987126219 9.735664795290177e-06 2.9138794410113227e-08 0.00014286498591766528 0.9951643330559732 0.9985582893690006 0.9993470873363426 0.9996308316805524 0.999760002968774 0.9998282169486628 0.999867464620167 0.9998899158214762 0.9998983521578878 0.9998836818570926 0.9997946340409775 0.999374519385296 0.9973640751515331 0.9882430741973879 0.9525581593691482 0.8419770957519778 0.5937770186409462 0.23964728315424086 1.659171805910427e-05 0.999999999840572 0.9999999998325851 0.9999999998151925 0.9999999997844788 0.9999999997326288 0.9999999996436085 0.9999999994823094 0.9999999991631093 0.9999999984464293 0.9999999965305867 0.9999999900460068 0.9999999602666384 0.9999997638768872 0.9999978720806815 0.9999723629442052 0.9995408071192297 0.9919461660451208 0.8835485102117524 0.0035198438682089352 8.668488503240105e-06 2.5357656166690754e-08 0.00013431020047888003 0.9946904955438683 0.9983156513195004 0.9992090920455776 0.9995379705406742 0.9996882972040759 0.9997667898559941 0.9998101319692518 0.9998314007724421 0.9998310293754683 0.9997907568276454 0.9996285082590005 0.9989828508332361 0.9962613054531319 0.9850799596059003 0.9445632440645692 0.8262955026098818 0.5732603664699174 0.22644398994753423 1.5356689511101206e-05 0.9999999984956569 0.9999999984308061 0.9999999982946054 0.9999999980608895 0.9999999976795654 0.9999999970526515 0.9999999959767157 0.999999993987098 0.999999989882632 0.9999999800092693 0.999999950723403 0.999999836409418 0.9999992142702275 0.9999943750255923 0.9999421825270869 0.9992328843280577 0.989005974307172 0.8659977206596309 0.003263539876165863 7.700352037031703e-06 2.1925150281957542e-08 0.00012522416915139233 0.9940746391813161 0.9979059963864271 0.9989231901045247 0.9993138814351654 0.9994977571915635 0.999595875969726 0.9996500324669203 0.9996736135682609 0.9996628245125386 0.9995860619889515 0.9993217584417818 0.9983895282798556 0.9948606432958564 0.9815791274408615 0.9365965444191119 0.8118948209363489 0.555603917760423 0.2156588058324856 1.4213273964142351e-05 0.9999999881539932 0.9999999877239416 0.999999986861179 0.9999999854268004 0.9999999831635394 0.9999999795903748 0.9999999737540152 0.9999999635994906 0.9999999441634343 0.9999999015461557 0.9999997888549119 0.9999994067914354 0.9999976471837313 0.9999862970835144 0.9998858316944269 0.9987640780007601 0.9852852129615368 0.8470745313649598 0.003020786398607306 6.82990833536693e-06 1.8814560173029322e-08 0.00011545763686894529 0.993024333016131 0.9970273640938753 0.998198884703525 0.9986895666597734 0.9989451150619048 0.9990993900735159 0.9991978033608284 0.9992518679825974 0.9992504928923831 0.9991442015860889 0.9987654944264919 0.9975111098270261 0.9931434226162487 0.977884010551681 0.9290975662317067 0.7995018769622898 0.5414631255392381 0.2075038291625642 1.317362169340733e-05 0.9999999204121267 0.9999999180414507 0.9999999135808358 0.9999999064159335 0.9999998954850382 0.9999998788529664 0.9999998528454545 0.9999998099065611 0.9999997328165047 0.9999995766795239 0.999999202594037 0.9999980797185553 0.9999936078923747 0.9999691307214605 0.999787191883586 0.998082632973793 0.9807207522333015 0.8270685957483828 0.0027932677837121415 6.054713009236274e-06 1.599503407772797e-08 0.0001047889293368452 0.9906349295818996 0.9947720354756318 0.99617025088761 0.9968716664459082 0.9973267534567624 0.9976706963018257 0.9979433322804903 0.9981463561400223 0.9982547301017566 0.9981957983580816 0.99775363553381 0.9962118564637481 0.9910829979872493 0.9741636602198671 0.9225265489895466 0.7898183386534029 0.5314520141660837 0.20219561852913023 1.2246964766672234e-05 0.9999995351593376 0.9999995242469418 0.9999995054252627 0.9999994765300384 0.9999994339027708 0.9999993710858907 0.9999992762281964 0.9999991258082399 0.9999988688876313 0.9999983803420758 0.9999973009638629 0.9999943782975572 0.9999841134099885 0.9999354554661103 0.99962542943422 0.9971397642517194 0.9753128426913056 0.806398257261257 0.00258294580368967 5.3723142039493945e-06 1.3439480335117154e-08 9.288400306915946e-05 0.9842524237554979 0.9885184527365969 0.9903626096044745 0.9916195147386135 0.9926884208396279 0.9936635427896633 0.9945444886004527 0.9952964282119753 0.9958623398778588 0.9961376288691594 0.9958606456529672 0.9942282871182353 0.9885930531984284 0.9705596868537327 0.9172990346763135 0.7834599773122374 0.5261258454858508 0.19997229341690884 1.143966080637203e-05 0.9999976024394379 0.9999975603580193 0.9999974974689745 0.9999974072785168 0.9999972791491881 0.9999970946595044 0.9999968209004665 0.9999963947617603 0.9999956852433677 0.9999943868535888 0.9999916789706448 0.9999849203510637 0.9999635654402793 0.999874224798728 0.9993770471876282 0.9959022990471168 0.9691529763509765 0.7856169978419817 0.0023913324567922394 4.778615053509333e-06 1.1119159369631849e-08 7.923981662048332e-05 0.9664785630423371 0.9710309150311802 0.9740064126839847 0.9768614003878856 0.9797982041209843 0.9827391835180165 0.9855351387421295 0.9880333812894525 0.9900943434997577 0.9915610899684388 0.992135702335477 0.9909775765936962 0.9854035198550435 0.9670912977199301 0.913697926533268 0.7808922937174931 0.5259662983506135 0.2011126606195112 1.0755415910417402e-05 0.9999889330351367 0.9999888003723457 0.9999886518073716 0.9999884697056268 0.9999882266201927 0.9999878750270196 0.9999873328970091 0.9999864475514079 0.9999849178686865 0.9999820793783136 0.9999762539995323 0.9999624207491543 0.9999221372224801 0.9997704734631142 0.9990201625617511 0.9943686315693858 0.9624488458745076 0.7654134141948912 0.0022200607710602138 4.269481384937907e-06 9.014556544014695e-09 6.312913332792662e-05 0.91778833901808 0.9233383698996501 0.9294581874526445 0.9368671349291787 0.9451921075500257 0.9538233770055313 0.962158505449381 0.9697027832125577 0.9760982951116178 0.9810817427455311 0.9843388185933656 0.9850811256443595 0.9807696797223132 0.9634713071980463 0.9117496469312998 0.7823481263965294 0.531353547830344 0.2059534251653882 1.0195612545873426e-05 0.9999537712510115 0.9999534503159881 0.9999533461712876 0.9999534112394978 0.9999535691922911 0.9999536933319466 0.9999535810017572 0.9999528780747853 0.9999509341500349 0.9999464213146639 0.999936219206525 0.9999116393819507 0.999843120810472 0.9996053334113287 0.9985404317199988 0.9925845043442936 0.9555398160452083 0.7466048495377707 0.0020707559576564607 3.8409303091216726e-06 7.125603771927314e-09 4.367388369449273e-05 0.790662478107698 0.7994423168753213 0.8140299692423774 0.8336102823282368 0.8563252957617058 0.8801405730334045 0.9032391617156221 0.924222291131911 0.9421660089201102 0.956558137636409 0.9670945636098007 0.9732039288970586 0.972781895963802 0.9587147130282433 0.9110083013084713 0.7877154005497088 0.5425209231112593 0.21490040236077293 9.759606892179202e-06 0.999823649863506 0.9998232126065473 0.999824478719924 0.9998272852569438 0.9998313833859541 0.9998363837271285 0.9998417126593977 0.9998464955636601 0.9998493147380536 0.9998475994062427 0.9998359215716384 0.9998004303327518 0.9996974484778096 0.9993550186194298 0.9979363059693759 0.990653596694125 0.9488969222631868 0.7301240959322508 0.0019447904416280877 3.4888518476347776e-06 5.501949722719838e-09 2.0670779621073635e-05 0.4901669316606882 0.5072079665795887 0.5415660245654581 0.5894324914670449 0.6457167534556362 0.7051855418585548 0.76323106829991 0.8163101435966734 0.8621069052690149 0.8994332389706379 0.9279256115205502 0.9474475801186554 0.9567747941809974 0.9502496975725412 0.9101066814975833 0.7963231687650326 0.5594658103652217 0.2284297721346677 9.44492139137605e-06 0.9993812286604504 0.9993820899211951 0.9993912075572486 0.9994079962405784 0.9994315037182868 0.9994604106435356 0.999492862108234 0.9995264170634155 0.9995576665919915 0.9995814465817541 0.9995884819730846 0.999557968188749 0.999429956624583 0.9989846389818173 0.997218966243875 0.9887359072878542 0.943101589519494 0.7170016153957269 0.0018438240125280307 3.2093774204756755e-06 4.355563688367132e-09 1.6585117771903605e-07 0.007279884502800797 0.009099071681003343 0.06024901795592186 0.1433438346139372 0.2478156441860844 0.36354946968109436 0.48110441036720125 0.5925174619159088 0.691911499954775 0.7756629268861218 0.8421644214660388 0.891161481934792 0.922348594926191 0.9320752070244127 0.9057768563769268 0.8064939074519814 0.5817665896239275 0.24706343641713122 9.247194963864466e-06 0.9979930041564951 0.998002119918484 0.9980429725825076 0.9981133875913447 0.9982100783789605 0.9983284662142846 0.998462524688637 0.9986049215333432 0.9987466516489352 0.9988762165912674 0.9989769037639888 0.9990179205183177 0.9989216566001077 0.9984256475715565 0.9963980378563836 0.9870261116718553 0.9387960328395462 0.7083438896019727 0.0017696153267142743 3.000291131090554e-06 4.066706660559343e-09 4.349127307465465e-06 0.15029273190131975 0.14054222782433773 0.123042442282937 0.09730373387704042 0.09178798717935172 0.13002373548313986 0.2105650001758213 0.3219025701790832 0.4483530544882546 0.5746955709411385 0.6889321361358955 0.7831541452097802 0.8526838799020702 0.89285342574612 0.8912850359360917 0.8146579890325254 0.6081830046832244 0.2712850192793442 9.159752880742353e-06 0.9939666903476585 0.9940081029128331 0.994152655536977 0.994393451644797 0.9947202001368964 0.9951189141847898 0.995571632763251 0.9960571805904587 0.996551020671552 0.9970251729576628 0.9974459816379716 0.997764865920064 0.9978833324184022 0.9975062912490202 0.9954332598037197 0.9857003240052337 0.9366036668350153 0.7053081638653906 0.0017242690999546989 2.859800254604834e-06 3.946038314038046e-09 9.455493437299547e-06 0.2658688514093949 0.2533670439670627 0.23740718576486305 0.21756157456678635 0.1924452267678603 0.16440586278307884 0.15624941542910753 0.18663089214577172 0.2602517124530296 0.3687699837654052 0.49601757457824824 0.623813435916166 0.7359753995514766 0.8188425282766324 0.8559171847604158 0.8142491877282778 0.6359630098816943 0.3013629957194264 9.17273561705138e-06 0.9831939008320211 0.9833341518389974 0.9837636294676672 0.9844644415770261 0.9854098766918938 0.9865636584844415 0.9878796935210347 0.989303037728876 0.9907710650611269 0.992215182258921 0.9935599869146037 0.9947173454431277 0.9955533403135756 0.9957459091237797 0.9940970605115241 0.9848048984239015 0.9370074207553694 0.7090488649351939 0.001710116734272362 2.7868866124439085e-06 3.932049649662684e-09 1.3667267150445672e-05 0.33003642365319885 0.3125347948252302 0.2954119229311576 0.27834027634289643 0.2604228582526559 0.24013318733639386 0.21352481885857158 0.19373330556213608 0.2000617277029835 0.246181055257861 0.33388176690914784 0.45277050181362327 0.5840495295089775 0.7048773282330071 0.7886473836371763 0.7956201096042821 0.6599601082207627 0.33695322234682323 9.271609022559583e-06 0.9567864534977114 0.9571712453859134 0.9582594523830964 0.9600132340321477 0.9623783560219895 0.9652785218634955 0.9686153788509747 0.9722694026750835 0.9761008359592057 0.9799531201579481 0.983656668255761 0.9870287204025511 0.9898509260390916 0.9917476645869067 0.9915710094775854 0.9839942749212499 0.9401356136801163 0.7206950544198099 0.0017299699099633803 2.7803083118811994e-06 3.9916149938250644e-09 1.6814451754592036e-05 0.3650792737265034 0.3402754827085448 0.3193933050364027 0.3015953141911552 0.2859054569527617 0.27120259276192604 0.2548636065316076 0.23342972469466586 0.21479237707446955 0.21405361881596346 0.24676244571427497 0.3210615227443963 0.43279457519705017 0.5645677909700845 0.6860385315698427 0.7485983805836837 0.6721256897141797 0.3765350929066661 9.435590782295282e-06 0.8982771265650459 0.8991550187648173 0.9014883369754579 0.9052302321615665 0.9102951371101413 0.9165671381162513 0.9238866472468098 0.9320507371601917 0.9408062350048749 0.9498526762691246 0.9588471771289313 0.9674103793369461 0.9751212520191382 0.9814356834643039 0.9851968704748661 0.9817457011346623 0.9453577246186554 0.7408621359776294 0.0017818258381731462 2.8300603160806518e-06 4.0903177121824515e-09 1.9124289055064052e-05 0.3856963879820028 0.3512270480402132 0.3249448849260479 0.30459694106632507 0.28861749030854694 0.2757540049262798 0.2648518894941852 0.25202483566228867 0.23621077156475476 0.2222619165221271 0.2217984767689108 0.24983255139583255 0.31794456649390607 0.42668971069436556 0.5584782544843266 0.6676438794165483 0.66228917841443 0.41634747038309605 9.636209500889427e-06 0.7838463181666958 0.7854632415478183 0.7895929475607988 0.796198901337631 0.8052209674151978 0.8165575667130555 0.830054063487278 0.8454867792397461 0.8625427134287493 0.880803216535503 0.8997334048715702 0.9186780297849797 0.9368578928554464 0.9533239307376057 0.9666477956239329 0.9726975358208722 0.9496057787824881 0.7705562131129133 0.001878904932183724 2.9282998602428637e-06 4.20499513597267e-09 2.081040979886452e-05 0.39863336678848366 0.35144920651170886 0.3183827060794855 0.2945335931590103 0.27709940977574865 0.26441439212895734 0.25525870344959334 0.24753689371804433 0.23883968409003112 0.22865898381489844 0.22035756991365843 0.22317820126369348 0.25122444463902055 0.3182682758076506 0.4279917424440143 0.5567778446702814 0.6205947558343956 0.45043603392441867 9.839237129236696e-06 0.593903627855383 0.596190101996132 0.6018713142953979 0.610980561488037 0.6235846923117746 0.6397322292108648 0.6594575204531314 0.682736789929736 0.7094622225733078 0.739391433007728 0.7720868259272504 0.8068678491054265 0.8427300190727963 0.8783309173420116 0.9115701864208604 0.9386061355917287 0.9417028539882408 0.8018779497087516 0.0019087156223828543 2.9219406955756464e-06 6.3705021358260564e-09 2.206001137253801e-05 0.4069879682476004 0.3418798255869623 0.3009138718161646 0.27270959966890307 0.25306277563361057 0.