# vtk DataFile Version 3.0
vtk output
ASCII
DATASET RECTILINEAR_GRID
DIMENSIONS 41 41 1
X_COORDINATES 41 double
0 1 2 3 4 5 6 7 8 9 10 11 12 13 14 15 16 17 18 19 20 21 22 23 24 25 26 27 28 29 30 31 32 33 34 35 36 37 38 39 40 
Y_COORDINATES 41 double
0 1 2 3 4 5 6 7 8 9 10 11 12 13 14 15 16 17 18 19 20 21 22 23 24 25 26 27 28 29 30 31 32 33 34 35 36 37 38 39 40 
Z_COORDINATES 1 double
0
POINT_DATA 1681
FIELD FieldData 1
Concentracao 1 1681 double
1.0 1.0 1.0 1.0 1.0 0.9999999999999999 0.9999999999999999 0.9999999999999998 0.9999999999999999 0.9999999999999997 0.9999999999999992 0.9999999999999987 0.9999999999999984 0.9999999999999982 0.999999999999998 0.9999999999999979 0.9999999999999301 0.9999999997088873 0.9999995734890785 0.9999991745737115 0.9999987744537172 0.9999983779633569 0.9999983779193351 0.9999983778706579 0.9999983777920206 0.9999983776854584 0.9999983775472966 0.9999983773744474 0.9999983771616544 0.9999983769011422 0.9999983765808365 0.9999983761812561 0.999998375667895 0.9999983746917082 0.9999983354472433 0.9999956836996656 0.9998921759220379 0.9975235804445666 0.9658167779086421 0.7332615367744381 6.764858283617539e-05 1.0 1.0 1.0000000000000002 1.0000000000000002 1.0000000000000002 1.0000000000000002 0.9999999999999996 1.0 0.9999999999999992 0.9999999999999988 0.9999999999999982 0.9999999999999978 0.9999999999999976 0.9999999999999977 0.9999999999999972 0.999999999994915 0.9999999513176495 0.9996268529021162 0.01536221160019089 0.0003374334375883796 0.0002921691357023996 0.006302459030220422 0.9999700743016952 0.9999787405702469 0.9999846739772833 0.9999878276985432 0.9999899408300953 0.9999914310351358 0.9999925545683181 0.9999934404279565 0.9999941660004809 0.9999947792086368 0.9999953116039979 0.9999957844527251 0.9999961735298499 0.9999938156133037 0.9998876028303088 0.9974696773304461 0.9653565649488929 0.7316068250415972 6.748542147782585e-05 0.9999999999999998 1.0 1.0 1.0000000000000002 1.0000000000000002 1.0000000000000002 0.9999999999999998 0.9999999999999996 0.9999999999999996 0.9999999999999989 0.9999999999999987 0.9999999999999984 0.9999999999999983 0.9999999999999986 0.9999999999999971 0.9999999999756861 0.9999997647207554 0.99923200458172 0.010197364975982667 5.125772438366263e-05 2.851208547565583e-07 0.00029330619222739694 0.99992409581846 0.9999619798573057 0.9999723289084455 0.9999784549011965 0.9999823457795429 0.9999851211564127 0.9999872181992736 0.9999888818844032 0.9999902520275016 0.9999914161819173 0.9999924319492408 0.999993338633247 0.9999941208936979 0.9999919105330194 0.9998795922671695 0.9973598265899482 0.9644243141289298 0.7283047907542031 6.723591559632085e-05 0.9999999999999998 1.0 0.9999999999999999 0.9999999999999999 1.0 1.0 1.0 0.9999999999999998 0.9999999999999998 0.9999999999999991 0.9999999999999989 0.9999999999999986 0.9999999999999986 0.9999999999999983 0.9999999999999953 0.9999999999270501 0.9999994644535231 0.9988387909973442 0.010274104009443214 5.149042213198431e-05 2.1503899568258047e-07 0.0002853337445686599 0.9998484325793923 0.9999343000569821 0.9999575242452995 0.9999680961333095 0.9999744660764893 0.9999787847535099 0.999981970742567 0.9999844577495738 0.9999864857853523 0.9999881979886096 0.9999896860092381 0.9999910111898286 0.9999921664364463 0.9999899381192826 0.9998675448860515 0.9971877016063774 0.9629946567395502 0.7233557544367021 6.68977872589945e-05 0.9999999999999996 1.0 1.0 0.9999999999999998 1.0 0.9999999999999998 0.9999999999999996 0.9999999999999997 0.9999999999999994 0.9999999999999994 0.9999999999999993 0.9999999999999993 0.9999999999999983 0.9999999999999978 0.9999999999999903 0.9999999998324726 0.9999990463355096 0.9984206792867144 0.010045839564905169 5.157333420275419e-05 2.188069098190048e-07 0.0002828581558415445 0.999745635158314 0.999899168413213 0.9999390440741176 0.9999563050708189 0.9999659350451302 0.9999721910761304 0.999976657643801 0.9999800673394281 0.9999828028759346 0.9999850852010239 0.999987051511714 0.9999887915817852 0.9999903059371786 0.9999878509193616 0.9998505110880508 0.9969441090230159 0.961033566207626 0.7167662029852484 6.64678658533884e-05 0.9999999999999992 0.9999999999999999 1.0 0.9999999999999999 0.9999999999999997 0.9999999999999996 0.9999999999999997 0.9999999999999988 0.9999999999999986 0.9999999999999979 0.9999999999999974 0.9999999999999971 0.9999999999999959 0.9999999999999958 0.9999999999999798 0.999999999667096 0.999998465963996 0.9979682834569192 0.009949325049678333 5.1113192389508746e-05 2.1835347008010383e-07 0.0002798702924952072 0.9996145226984756 0.9998562324479198 0.9999174821332604 0.9999430168427195 0.9999567187317713 0.9999652946502845 0.9999712448536809 0.9999756855515877 0.9999791863826286 0.9999820675454058 0.9999845232999821 0.9999866783696865 0.9999885383808709 0.9999855740225769 0.999827084288015 0.9966165156258825 0.9584974093135358 0.7085530219436829 6.594237311938642e-05 0.9999999999999991 0.9999999999999998 0.9999999999999997 0.9999999999999997 0.9999999999999997 0.9999999999999992 0.9999999999999994 0.999999999999999 0.9999999999999988 0.9999999999999982 0.9999999999999979 0.9999999999999979 0.9999999999999969 0.9999999999999967 0.9999999999999611 0.999999999388869 0.9999976718455866 0.9974672284781241 0.009806232162565393 5.012933546930342e-05 2.137132271010521e-07 0.00027637446971817415 0.9994563112817 0.9998067051048279 0.9998932593333169 0.9999285119558364 0.9999469247812642 0.999958152177101 0.9999657610128191 0.9999713281702715 0.9999756453233971 0.9999791505249804 0.9999821052143061 0.9999846745149905 0.9999868626643544 0.9999829893383493 0.9997952783086731 0.9961884774250428 0.9553347557672707 0.698744178618072 6.531705955215846e-05 0.999999999999999 1.0 0.9999999999999997 0.9999999999999998 0.9999999999999994 0.9999999999999992 0.9999999999999989 0.9999999999999992 0.9999999999999982 0.9999999999999979 0.9999999999999973 0.999999999999997 0.9999999999999967 0.9999999999999963 0.9999999999999236 0.9999999989300788 0.9999965885061267 0.996905785365232 0.009636610211788257 4.8736950590495576e-05 2.0653218965199867e-07 0.000272408504487854 0.9992723233177144 0.9997514862619113 0.9998669784272494 0.9999131021057454 0.9999367322240115 0.9999508622211076 0.9999602635735265 0.9999670289960149 0.9999721998223622 0.999976345997798 0.999979803994588 0.9999827836680617 0.9999852741993244 0.9999799122217211 0.9997523001324962 0.9956388751535988 0.951487229648311 0.6873827429303713 6.458745368143739e-05 0.9999999999999992 0.9999999999999998 0.9999999999999999 0.9999999999999997 0.9999999999999994 0.9999999999999993 0.9999999999999986 0.9999999999999984 0.9999999999999979 0.9999999999999973 0.9999999999999967 0.9999999999999959 0.9999999999999961 0.9999999999999958 0.999999999999847 0.9999999981761928 0.9999951097455878 0.9962690700637477 0.009438749572456964 4.7036696475153756e-05 1.9751330854179225e-07 0.0002680073674946313 0.9990642279593304 0.999691586983603 0.9998391814950028 0.9998971054799006 0.9999263224714586 0.9999435313341557 0.9999548149352855 0.9999628247332063 0.9999688708287883 0.9999736653311837 0.9999776251865244 0.9999810075601834 0.9999837615510646 0.9999760574722353 0.999694315155197 0.9949419790452572 0.9468923682062164 0.674530819555911 6.374928255566737e-05 0.9999999999999988 0.9999999999999998 0.9999999999999994 0.999999999999999 0.9999999999999993 0.9999999999999989 0.999999999999998 0.9999999999999982 0.9999999999999976 0.9999999999999969 0.9999999999999962 0.9999999999999952 0.9999999999999946 0.9999999999999937 0.9999999999996622 0.9999999969081712 0.9999930750948216 0.9955411724621482 0.009216740847322505 4.510265302051406e-05 1.8722583625783251e-07 0.0002632066075905792 0.9988337727341388 0.9996278855552884 0.999810339879338 0.999880787506862 0.999915850840168 0.999936249744198 0.9999494675865501 0.9999587446930364 0.9999656738030716 0.9999711154363791 0.999975570450752 0.9999793443546676 0.9999823020312961 0.9999709888556174 0.999616150297798 0.9940665976087085 0.9414862837788784 0.6602712390912547 6.279877511825803e-05 0.9999999999999981 0.9999999999999994 0.9999999999999994 0.9999999999999992 0.9999999999999992 0.9999999999999987 0.9999999999999977 0.9999999999999974 0.9999999999999972 0.9999999999999976 0.9999999999999961 0.9999999999999958 0.9999999999999951 0.9999999999999938 0.999999999998862 0.999999993883348 0.9999901604924426 0.9947030498648646 0.008974367477148526 4.300198087069812e-05 1.7615183535775007e-07 0.00025803978965964865 0.9985827093201338 0.9995610790444193 0.9997807973540455 0.9998643369631192 0.9999054245478429 0.9999290783145915 0.9999442541141506 0.9999548050265438 0.999962614684723 0.9999686960221139 0.9999736359412479 0.9999777874110716 0.999980854868579 0.9999640462540219 0.9995109110460056 0.9929764103789326 0.9352086619338607 0.6447123050298339 6.173314871116416e-05 0.9999999999999976 0.9999999999999989 0.9999999999999989 0.9999999999999988 0.9999999999999983 0.9999999999999981 0.9999999999999978 0.9999999999999971 0.9999999999999968 0.999999999999997 0.9999999999999962 0.9999999999999954 0.9999999999999946 0.9999999999999923 0.9999999999958021 0.9999999869036744 0.9999849172978974 0.9935647248858387 0.008717290634865269 4.085728800924844e-05 1.6511959616263845e-07 0.0002525373545461562 0.9983126934390658 0.9994915931787735 0.9997507401409972 0.9998478504245242 0.9998950933425295 0.9999220406571251 0.9999391830525404 0.999951005055494 0.9999596875305024 0.9999663985649 0.9999718119216661 0.9999763245751453 0.9999793506259791 0.9999542454413705 0.9993696274378756 0.991630533542514 0.9280088806524126 0.6279921751362747 6.05510572191573e-05 0.9999999999999968 0.9999999999999981 0.9999999999999987 0.9999999999999983 0.9999999999999979 0.9999999999999979 0.9999999999999983 0.9999999999999968 0.9999999999999968 0.9999999999999956 0.9999999999999961 0.9999999999999953 0.999999999999995 0.9999999999999869 0.9999999999845025 0.999999971755914 0.999976840919692 0.9922099027118543 0.008446091727128345 3.863697150827523e-05 1.5384574594485783e-07 0.00024672560107102666 0.9980252103011583 0.9994195080585051 0.999720173706848 0.9998313200079816 0.9998848446348856 0.99991512068589 0.9999342362832405 0.9999473259752328 0.9999568740087336 0.9999642055724149 0.9999700821253354 0.9999749368673517 0.9999776731918102 0.999940144675138 0.9991809621498206 0.9899849700855712 0.9198529591414659 0.6102795532988162 5.925305055268983e-05 0.999999999999996 0.999999999999998 0.9999999999999986 0.9999999999999977 0.9999999999999972 0.999999999999997 0.999999999999997 0.9999999999999967 0.999999999999996 0.9999999999999952 0.9999999999999954 0.9999999999999947 0.9999999999999939 0.9999999999999476 0.9999999999442808 0.9999999394864281 0.9999645817763333 0.9906000824824218 0.008163057182715887 3.637591664355455e-05 1.4256165292408453e-07 0.0002406258707975629 0.9977215259649531 0.9993444822106876 0.9996888901592341 0.9998146218235071 0.9998745959612705 0.9999082583953885 0.9999293676935993 0.9999437305411838 0.999954143057256 0.9999620908754984 0.9999684240834896 0.9999735960955607 0.9999756313462534 0.9999196846842453 0.9989310712993728 0.9879954449850669 0.9107330955203208 0.5917792376932149 5.784212732759845e-05 0.9999999999999958 0.9999999999999971 0.9999999999999979 0.9999999999999971 0.9999999999999963 0.9999999999999969 0.9999999999999959 0.9999999999999954 0.9999999999999948 0.9999999999999938 0.9999999999999941 0.999999999999993 0.9999999999999927 0.9999999999996955 0.9999999998071019 0.9999998718225934 0.9999461277178618 0.9886909522844433 0.007871783275387165 3.41124891507719e-05 1.314530949052465e-07 0.00023425387854479528 0.9974026155718089 0.9992656693516954 0.9996564363840007 0.9997975036126103 0.9998641915843751 0.9999013490057792 0.9999245013466679 0.9999401614178278 0.9999514500707787 0.9999600191430494 0.999966808357772 0.9999722595905286 0.9999729153630906 0.9998900200467228 0.9986038473900277 0.985621709975396 0.9006767831935023 0.5727304347244584 5.632414234516372e-05 0.9999999999999956 0.9999999999999968 0.9999999999999972 0.9999999999999961 0.9999999999999953 0.9999999999999954 0.9999999999999957 0.9999999999999951 0.9999999999999954 0.9999999999999923 0.9999999999999933 0.9999999999999925 0.9999999999999866 0.9999999999982296 0.9999999993600474 0.9999997323477808 0.9999185643025542 0.9864334039046175 0.007573909341695613 3.1868450206897824e-05 1.2064820054572887e-07 0.00022761882827578662 0.9970691431362392 0.9991816236460919 0.9996220634713185 0.9997795600407978 0.9998533886383131 0.9998942339025437 0.9999195276837245 0.9999365392230785 0.9999487358956831 0.9999579447596765 0.9999651971469591 0.999970860346801 0.9999690367999452 0.9998473876319887 0.9981817603556726 0.9828333571018146 0.889757569510294 0.5534080969181735 5.470816404280465e-05 0.999999999999996 0.9999999999999964 0.9999999999999969 0.9999999999999959 0.9999999999999943 0.9999999999999952 0.9999999999999948 0.9999999999999938 0.9999999999999938 0.999999999999992 0.9999999999999931 0.9999999999999921 0.99999999999992 0.9999999999905272 0.9999999979716703 0.9999994502538994 0.9998777524624962 0.98377395267745 0.0072719320387498515 2.967017612645431e-05 1.1026137958538378e-07 0.00022072252253513785 0.9967214064953354 0.9990901679533116 0.9995846497447352 0.9997601916773965 0.9998418351551244 0.9998866898152201 0.9999142959805537 0.9999327580434171 0.9999459232790782 0.9999558098102833 0.9999635401978487 0.9999692883295794 0.9999632541216138 0.9997870902998934 0.9976475600867141 0.9796179110272779 0.878106148210046 0.5341202571375218 5.300674141068453e-05 0.9999999999999954 0.9999999999999961 0.9999999999999954 0.9999999999999952 0.9999999999999933 0.9999999999999947 0.999999999999995 0.9999999999999938 0.9999999999999929 0.9999999999999916 0.9999999999999918 0.9999999999999764 0.9999999999993913 0.9999999999539562 0.999999993871748 0.9999988918632222 0.9998179308323658 0.9806562502646244 0.006968357635320773 2.7535334884994104e-05 1.0037363912843801e-07 0.000213558282816983 0.996359250772228 0.9989882388557436 0.9995425735677913 0.9997385324560283 0.999829029509727 0.9998784039587407 0.9999086002431933 0.9999286758862727 0.9999429111681368 0.9999535387288465 0.9999617655875278 0.9999673601625703 0.9999544990973651 0.9997037164251299 0.9969870240429175 0.9759895124132443 0.8659173752385465 0.5152069633020794 5.1235924481765494e-05 0.9999999999999951 0.9999999999999959 0.9999999999999947 0.9999999999999954 0.999999999999993 0.999999999999994 0.9999999999999938 0.9999999999999933 0.999999999999992 0.9999999999999902 0.9999999999999776 0.9999999999998207 0.9999999999958162 0.999999999796688 0.9999999823864407 0.9999978130188013 0.9997312740477884 0.9770230283860267 0.006664351176245346 2.547841856634333e-05 9.102300826493196e-08 0.00020610912246468355 0.9959820197185695 0.9988716631825751 0.9994935132241602 0.9997133240797351 0.9998142467225856 0.9998689309174441 0.9999021511824098 0.9999240972160417 0.9999395616110563 0.9999510259787642 0.9999597607701832 0.9999647735889644 0.9999413337450357 0.9995917215346707 0.9961927791265462 0.9719987786011395 0.85345694210879 0.4970338204842409 4.941520973579875e-05 0.9999999999999947 0.9999999999999954 0.9999999999999943 0.9999999999999948 0.999999999999992 0.9999999999999927 0.9999999999999913 0.9999999999999882 0.9999999999999808 0.9999999999999548 0.9999999999998127 0.9999999999984805 0.9999999999749893 0.9999999991831898 0.999999951932849 0.9999957846189145 0.9996074659436729 0.9728197820412764 0.0063625590082524 2.3514724955856036e-05 8.225403070481801e-08 0.0001983453885422744 0.9955883943920932 0.9987348506474101 0.9994341226019683 0.9996826992738842 0.9997964038344606 0.9998576084441992 0.9998945234778396 0.9999187357685293 0.9999356707850325 0.999948108072656 0.999957332401312 0.9999610458457264 0.9999219868036707 0.9994464851571323 0.9952690254087074 0.9677409371499257 0.8410618132534102 0.4799863016215354 4.756713798308192e-05 0.999999999999983 0.9999999999999838 0.9999999999999809 0.9999999999999786 0.9999999999999732 0.9999999999999651 0.9999999999999496 0.999999999999914 0.9999999999998243 0.9999999999995396 0.9999999999982543 0.9999999999889975 0.9999999998697393 0.9999999970090627 0.9999998756991312 0.9999920854315308 0.999433407567557 0.967999288955904 0.0060643999433922765 2.1650666570751423e-05 7.406364988615075e-08 0.0001902207004987347 0.9951761635444649 0.9985703143118854 0.9993594827956459 0.999643775712077 0.9997737897529725 0.999843378162138 0.9998850316691373 0.9999121235342286 0.9999308952903558 0.9999444925295642 0.9999541267120898 0.9999554372156957 0.9998945172109613 0.9992658032257621 0.9942363000353739 0.9633614714995649 0.8291369066529963 0.4644646055256238 4.571672569135426e-05 0.9999999999998054 0.9999999999997968 0.9999999999997756 0.9999999999997389 0.9999999999996773 0.9999999999995729 0.9999999999993828 0.9999999999990006 0.9999999999981262 0.9999999999956634 0.9999999999863365 0.9999999999326441 0.9999999994046039 0.9999999899997702 0.9999996959671116 0.9999855640696034 0.999193260376224 0.9625286584758701 0.005771806677649854 1.9895436747988512e-05 6.645541907927896e-08 0.00018166594125513337 0.9947417344583384 0.9983678536362076 0.9992620770527448 0.9995918095704018 0.9997434411557362 0.9998243360248033 0.9998723963487575 0.9999033538367843 0.9999245427939055 0.9999395762454092 0.9999494626541297 0.9999468501869053 0.9998571237987312 0.9990516620098133 0.9931351760873008 0.9590561876231146 0.8181426580041804 0.45087731268652437 4.3890717302796995e-05 0.9999999999974433 0.9999999999973335 0.9999999999971075 0.9999999999967203 0.9999999999960936 0.9999999999950652 0.9999999999933065 0.9999999999900419 0.9999999999832174 0.9999999999661366 0.9999999999105272 0.9999999996466674 0.9999999975924353 0.9999999694122866 0.9999992978278689 0.9999744908674886 0.9988690476474555 0.95639714131315 0.005487118316148295 1.8256709146453174e-05 5.941615580105352e-08 0.00017257878270711798 0.9942783991972018 0.9981124225378928 0.9991293547128379 0.9995180162012367 0.9996993819118933 0.999796358369471 0.9998536889162822 0.9998902658589042 0.9999149345702635 0.9999319394200662 0.9999419417790384 0.9999336356927491 0.9998085052711323 0.9988117059991595 0.9920275281023129 0.9550647662378804 0.8085785424180648 0.4396344113489045 4.211653397622179e-05 0.9999999999716018 0.9999999999705941 0.9999999999686185 0.9999999999653735 0.9999999999602998 0.9999999999523551 0.9999999999394749 0.9999999999171343 0.9999999998740995 0.999999999776978 0.9999999994997428 0.999999998386732 0.9999999913166477 0.9999999142295614 0.9999984711895292 0.999956451360694 0.998442232076428 0.9496269214547995 0.005212277130149312 1.6738393718126652e-05 5.292164561880917e-08 0.0001628058947107402 0.9937694664778203 0.9977768105451076 0.9989360791096668 0.9994025335376301 0.9996266817127765 0.9997483241732993 0.9998206096079434 0.9998666193596281 0.9998973053064242 0.9999178191465063 0.9999283969794003 0.9999130383708781 0.9997479932835154 0.9985597729908301 0.9909937320767729 0.951655349776122 0.8009570741154265 0.43114335433070383 4.042126435567827e-05 0.9999999997327863 0.9999999997252209 0.9999999997115567 0.9999999996900368 0.9999999996576896 0.9999999996090967 0.9999999995339458 0.9999999994107475 0.9999999991891702 0.9999999987306273 0.9999999975597021 0.9999999934878895 0.9999999718293274 0.9999997789852991 0.9999968663186966 0.9999283723729993 0.9978964504825489 0.9422842095398151 0.004949181861233771 1.5343126163231675e-05 4.6930347701141824e-08 0.0001521112475841728 0.9931581198161558 0.9972912862653844 0.9986147410205575 0.9991876199387418 0.9994786924976498 0.9996437914336093 0.9997453771356498 0.999811655461214 0.9998563734418847 0.999886033068907 0.9999006172060723 0.9998793290066154 0.9996747047406197 0.9983145560058942 0.9901248578933937 0.9491011892597246 0.7957746443829167 0.42580552514856307 3.8830575272194667e-05 0.9999999978272296 0.9999999977809592 0.9999999977070397 0.9999999975977434 0.999999997440219 0.9999999972117326 0.9999999968703136 0.9999999963312299 0.9999999954060425 0.9999999936072634 0.9999999893948253 0.9999999763900295 0.9999999170516424 0.9999994752230431 0.999993960278845 0.999886806889748 0.9972217489192834 0.9344918801463277 0.004700456058036022 1.4074726647243566e-05 4.140403437140554e-08 0.0001401116445503642 0.9922087587912091 0.9964080232989481 0.9979287888561298 0.9986653201304866 0.9990829097110732 0.9993461051505881 0.9995240260444639 0.9996491692561981 0.9997381713295489 0.9997995348575596 0.9998339336005715 0.9998172132205474 0.9995837066597898 0.9980949720198277 0.989509661920011 0.9476497780090734 0.7934751843968145 0.4240118557367157 3.7367612250928534e-05 0.9999999844485215 0.9999999842200699 0.9999999839351114 0.9999999835648409 0.9999999830626876 0.9999999823470608 0.999999981271061 0.9999999795487495 0.9999999765726606 0.9999999708595123 0.999999958064611 0.9999999217976655 0.9999997760432182 0.9999988479896589 0.9999890653314769 0.9998286059531842 0.9964200814550919 0.9264409269294105 0.0044682118664785865 1.2933740513967936e-05 3.6278714212497496e-08 0.00012613939903265042 0.9898575885991728 0.9940742683158724 0.9958983313950719 0.9969781291076366 0.9977289796183508 0.9982955840767855 0.9987360402869428 0.9990774154068109 0.9993357763268328 0.9995227103682051 0.9996435911883256 0.9996771921867275 0.9994523067762654 0.9979095945214866 0.9892167036470683 0.9474895398885429 0.794413887599079 0.42613901236851925 3.60520142017277e-05 0.9999999004367566 0.9999998995956257 0.9999998991719165 0.9999998990563012 0.999999899081829 0.9999998989544415 0.9999998981766162 0.9999998958329884 0.9999998901363536 0.9999998770626645 0.999999845738544 0.9999997586775891 0.9999994383376456 0.9999976511579677 0.9999814181856304 0.9997520387473311 0.9955115693990124 0.9183998887662226 0.0042550589685104775 1.1920991315876343e-05 3.148042388488049e-08 0.00010892036974605592 0.9810697908234524 0.9854236107304474 0.988077688580642 0.9902845540474352 0.9922694485634398 0.9940423150206703 0.9955677948686772 0.9968192733772394 0.9977943896956951 0.9985126857051095 0.999003619199133 0.9992760281493669 0.999188304230377 0.9977280794595285 0.989269918720668 0.94871483345511 0.7988182371702426 0.4325433334602467 3.489910742345869e-05 0.9999994219587118 0.9999994203449825 0.9999994249379817 0.9999994351959304 0.9999994502265172 0.9999994686192438 0.9999994883253507 0.9999995061054043 0.9999995165501576 0.9999995092416976 0.9999994593268853 0.9999992895097487 0.9999986681325667 0.9999955208775976 0.9999703712959872 0.9996582367135003 0.9945402025009916 0.9107202495541907 0.004063856934630881 1.1037674335973154e-05 2.6914214052901976e-08 8.576661971631878e-05 0.9410763321299299 0.9467778807461272 0.9531027611950484 0.9603463643659359 0.9679433658497568 0.975243590622389 0.9817383848695974 0.9871328615830534 0.9913378344146934 0.9944206049897518 0.9965383793739344 0.9978608103045976 0.9984121496042832 0.9973791924726 0.9895986004659235 0.951291095802353 0.8067524655252635 0.4435509029936246 3.391923874328658e-05 0.9999969209813612 0.9999969277538796 0.9999969836641529 0.9999970848313954 0.999997225328632 0.9999973966260975 0.9999975875862497 0.9999977838786663 0.9999979663484511 0.9999981060587095 0.9999981478239454 0.9999979450602734 0.9999969339539155 0.9999919131613715 0.9999556426728166 0.9995525983226564 0.9935771346781591 0.903834838723253 0.0038971368765606737 1.0283968504497375e-05 2.2478816766081873e-08 5.072379060292683e-05 0.7467288811065296 0.7610904317413593 0.7862236184114154 0.8185813269903576 0.8537801365197356 0.8879306688990554 0.9182615343360425 0.9432695653359606 0.9625636041852371 0.9765443633719472 0.9860590851868337 0.9920926447176437 0.9954619906578639 0.996105789673701 0.9898603420781942 0.9549878429163557 0.8180800753444146 0.4594449370991944 3.311731726517172e-05 0.999984806111774 0.9999849052139397 0.9999853036031147 0.9999859765258546 0.9999868849036917 0.9999879781245733 0.9999891927297275 0.9999904567968255 0.999991688792905 0.9999927938315522 0.9999936396163366 0.9999939588236822 0.9999928719823975 0.9999858459822223 0.9999374470241897 0.9994454807858016 0.9927192938666993 0.8982471885695706 0.003757984366969061 9.659266887897104e-06 1.8522892310738638e-08 9.038228802777437e-07 0.02544085432452452 0.024797763000543746 0.10691799087785278 0.23270020329696373 0.3770932875549867 0.5205265714768319 0.6494825608162756 0.7565695549942901 0.839578720843168 0.8999462748902233 0.9411772028872716 0.967537624419295 0.9830736875283311 0.9905918706131526 0.988658682634832 0.9591267613427862 0.8323908609654476 0.48044215075136704 3.24925104164603e-05 0.9999300224030517 0.9999307221377205 0.9999329670426929 0.999936613642153 0.9999414514529728 0.9999472066012334 0.9999535520322426 0.9999601338961769 0.9999665865023399 0.9999725451915747 0.9999776298526382 0.9999813235523285 0.9999823426004613 0.9999748127927576 0.9999160237363066 0.99935130744097 0.9920808220488765 0.8945096167185516 0.003649452334801855 9.165635319596668e-06 1.771103453985023e-08 1.5540608988129365e-05 0.31423907622521713 0.3022541316575156 0.2818268578422497 0.250311228611071 0.236573872865269 0.2746708635279051 0.36282863703334634 0.4824061426798717 0.6104962050109404 0.7282959115668629 0.824611560001686 0.8956922983861342 0.9431456541125822 0.9710421837955017 0.9814442185116886 0.961747809973819 0.8487552306135197 0.5066340486153073 3.203801477426487e-05 0.999697725119155 0.999701499648504 0.999712275628903 0.9997293659916549 0.9997517798369204 0.9997782560796523 0.999807314322531 0.9998373776590083 0.9998668606920862 0.9998942841384155 0.9999183368736971 0.9999377816417755 0.9999507360899793 0.9999502695351308 0.9998890410294006 0.9992849476867963 0.9917765815872037 0.8931892989054266 0.003574773922287409 8.803444412700225e-06 1.7237010982388853e-08 2.621906353402358e-05 0.4200041312754834 0.40597026493853533 0.39126478065344994 0.375497757894135 0.3570103170216356 0.3319514818394885 0.3229354369713739 0.3533297137663398 0.4281133293747571 0.5353085323660232 0.6546235843367789 0.7664434154840873 0.8574420864743217 0.921925064740958 0.9586240662209369 0.9581264093702658 0.8651227620547436 0.5378600026692099 3.174087041448561e-05 0.9987732628441729 0.9987904140621465 0.9988357503954315 0.9989065333328 0.9989988329643668 0.999107662730926 0.9992272170344345 0.9993512366952738 0.9994734387248404 0.9995880016692882 0.9996899217044157 0.9997752620910821 0.9998405282473267 0.9998781255904596 0.9998405897888085 0.9992526808931441 0.9918975037965944 0.8948140901657176 0.0035369372647835714 8.572115438484521e-06 1.6952501884818408e-08 3.287324532179451e-05 0.4570518885513641 0.43634024724633363 0.41875281132527364 0.40406017545751316 0.39153673560825547 0.379942717143489 0.3630478502483436 0.35113906661846483 0.3634014385668751 0.41343078118253435 0.5011667711385176 0.613439917167658 0.7304279218591032 0.8332424018622338 0.908084182855604 0.939918839980351 0.8773648176544825 0.5733665119887343 3.158140116287483e-05 0.9953349527692926 0.9954019449393696 0.9955701042883573 0.9958301845053731 0.9961692920109835 0.996570725062858 0.9970148342122653 0.9974801012325497 0.9979443389771822 0.9983862264560128 0.9987869182339218 0.9991314261035539 0.9994090428947406 0.9996096208569171 0.9996907511908939 0.9992239317376171 0.9924742682937698 0.8998337602063088 0.00353906119979914 8.46733503568065e-06 1.6829946836713143e-08 3.723250024638385e-05 0.4741722294363505 0.44429603667516976 0.4210840171768834 0.4035171956276402 0.39057281063026167 0.38124485274077424 0.3734396029297222 0.3633489008340998 0.356586634320011 0.36655238923431627 0.40728463695486244 0.48471623871955855 0.5922493706420866 0.712520213525712 0.8229253032155415 0.8968966799600763 0.8784830735420956 0.6112783627496737 3.153266406968769e-05 0.9835171981226364 0.9837439760860911 0.9842880436530824 0.9851271854605205 0.9862259069556788 0.9875392998819831 0.989012438350448 0.9905831948325377 0.9921841800229398 0.9937468766024593 0.9952062227540699 0.9965054581629568 0.9976005135460031 0.9984604583701032 0.9990426151308721 0.9989990121034793 0.9934134608232511 0.9084062623188898 0.003575795512776981 8.46203546648325e-06 1.678329451361614e-08 4.0233908194084606e-05 0.4838107808903401 0.4422338918971681 0.4120106649849974 0.3903081707391456 0.3752358820899528 0.3654285208679668 0.35979189811334256 0.3553691969609846 0.35084746789694743 0.34985762955959193 0.3623774363557155 0.40130646684992005 0.4754373873195765 0.5829097062353663 0.7083216452797676 0.8215034020440514 0.8588427014806763 0.647523411781671 3.156002355760403e-05 0.946801347180796 0.9474426071130192 0.9489390708330308 0.9512452591801147 0.9542943491611104 0.9579943809142913 0.9622291812012935 0.9668590882754576 0.9717226969469566 0.9766416978636464 0.9814291254367389 0.9859005851775358 0.9898875265494856 0.99324936926351 0.9958721583037112 0.9974569477875194 0.9941272890496217 0.9208710849461346 0.0036714615520074515 8.536900307738452e-06 1.67503251162861e-08 4.235120991084567e-05 0.4898055679655413 0.43302222967832743 0.3944553738761115 0.36796745628271327 0.3501334140263364 0.33897772618765004 0.3331729751893657 0.33087973173539725 0.33018783435747506 0.33065951750162365 0.33516731473782546 0.35177442803034853 0.3924802786179326 0.4680840754858011 0.5805645801720578 0.7135222187706007 0.8079386791651498 0.675557263016045 3.1623739255442586e-05 0.8476116905831285 0.8490477965400774 0.8523384478266463 0.8574312897707893 0.8642596269182647 0.8727142621479872 0.8826498730339594 0.8938688052559983 0.9061198233934111 0.9190909549988907 0.9324061857144924 0.9456363841247124 0.9583071863774884 0.9699464215844823 0.9800496792169304 0.9881361753584239 0.9912155909258109 0.9341050278598624 0.003639206989335966 8.331326673988577e-06 2.2404996484111387e-08 4.395846700298141e-05 0.4936775026063521 0.4155049478547537 0.3673697319965562 0.3353207799352421 0.3141435097222623 0.3012675234243295 0.29484910955642357 0.2931632441567381 0.29