# vtk DataFile Version 3.0
vtk output
ASCII
DATASET RECTILINEAR_GRID
DIMENSIONS 41 41 1
X_COORDINATES 41 double
0 1 2 3 4 5 6 7 8 9 10 11 12 13 14 15 16 17 18 19 20 21 22 23 24 25 26 27 28 29 30 31 32 33 34 35 36 37 38 39 40 
Y_COORDINATES 41 double
0 1 2 3 4 5 6 7 8 9 10 11 12 13 14 15 16 17 18 19 20 21 22 23 24 25 26 27 28 29 30 31 32 33 34 35 36 37 38 39 40 
Z_COORDINATES 1 double
0
POINT_DATA 1681
FIELD FieldData 1
Concentracao 1 1681 double
1.0 1.0 1.0 1.0 1.0 0.9999999999999999 0.9999999999999999 0.9999999999999998 0.9999999999999999 0.9999999999999997 0.9999999999999992 0.9999999999999987 0.9999999999999984 0.9999999999999982 0.999999999999998 0.9999999999999979 0.9999999999999911 0.999999999908908 0.9999995748569658 0.9999991759698639 0.9999987758712982 0.9999983797949398 0.9999983797533153 0.9999983797090578 0.9999983796385596 0.9999983795441912 0.9999983794234447 0.9999983792746704 0.9999983790948909 0.9999983788798947 0.9999983786234344 0.9999983783160177 0.9999983779423971 0.9999983774735053 0.9999983760665816 0.9999982573678745 0.9999889272635136 0.9995723022157117 0.9889785218669579 0.844019124926641 0.0001057074958691113 1.0 1.0 1.0000000000000002 1.0000000000000002 1.0000000000000002 1.0000000000000002 0.9999999999999996 1.0 0.9999999999999992 0.9999999999999988 0.9999999999999982 0.9999999999999978 0.9999999999999976 0.9999999999999977 0.9999999999999973 0.9999999999998377 0.9999999952607503 0.9998835165948385 0.018045641514297106 0.00040265451185016394 0.00034049764823744044 0.007334754524201457 0.9999701055417524 0.9999787628112604 0.9999846900631258 0.9999878405207921 0.9999899514750545 0.9999914401566085 0.9999925625562284 0.9999934475418215 0.9999941724253274 0.9999947850898183 0.9999953170736522 0.9999957899586212 0.9999962183060481 0.9999964925648571 0.9999872544957102 0.9995619821110303 0.9888244442144757 0.8429882222212117 0.0001055700586786107 0.9999999999999998 1.0 1.0 1.0000000000000002 1.0000000000000002 1.0000000000000002 0.9999999999999998 0.9999999999999996 0.9999999999999996 0.9999999999999989 0.9999999999999987 0.9999999999999984 0.9999999999999983 0.9999999999999986 0.9999999999999982 0.9999999999992542 0.99999997755842 0.9997608943000567 0.012113826640788762 7.182200457928022e-05 4.3061233491915183e-07 0.0003428892814025833 0.9999241293452308 0.9999620055663434 0.9999723502373175 0.9999784728791546 0.999982361288893 0.9999851347353064 0.9999872302291913 0.9999888926384812 0.9999902617125974 0.9999914249651813 0.9999924399824583 0.9999933464206413 0.9999941717437322 0.9999948063792182 0.9999853269743701 0.9995418346641055 0.9885121824936539 0.8409265678172944 0.00010536940232732728 0.9999999999999998 1.0 0.9999999999999999 0.9999999999999999 1.0 1.0 1.0 0.9999999999999998 0.9999999999999998 0.9999999999999991 0.9999999999999989 0.9999999999999986 0.9999999999999986 0.9999999999999983 0.9999999999999977 0.999999999997826 0.9999999492833738 0.9996392816165267 0.012307797448066331 7.320783143914676e-05 3.480632376233523e-07 0.00033271891317271195 0.9998484697028412 0.9999343285590697 0.9999575483778582 0.9999681171707966 0.9999744846600218 0.9999788013309467 0.9999819856314505 0.9999844711898329 0.9999864979649538 0.9999882090642039 0.9999896961270546 0.9999910209221261 0.9999922260639947 0.9999931964805439 0.9999830930927424 0.9995107023421553 0.9880323684230161 0.8378277646042498 0.00010510314416843689 0.9999999999999996 1.0 1.0 0.9999999999999998 1.0 0.9999999999999998 0.9999999999999996 0.9999999999999997 0.9999999999999994 0.9999999999999994 0.9999999999999993 0.9999999999999993 0.9999999999999983 0.9999999999999978 0.9999999999999967 0.9999999999951151 0.9999999101836895 0.9995103451505417 0.012125054522623541 7.428881331217864e-05 3.6009823182041906e-07 0.00033020300664731225 0.999745677165107 0.9998991994452271 0.9999390704068258 0.999956328274448 0.9999659558192665 0.9999722098322821 0.999976674665826 0.9999800828376693 0.999982817015958 0.9999850981224204 0.9999870633484309 0.9999888030165083 0.9999903783904943 0.9999916625772385 0.9999804688211115 0.9994668885938894 0.9873722104038435 0.8336861143040276 0.00010476800714809932 0.9999999999999992 0.9999999999999999 1.0 0.9999999999999999 0.9999999999999997 0.9999999999999996 0.9999999999999997 0.9999999999999988 0.9999999999999986 0.9999999999999979 0.9999999999999974 0.9999999999999971 0.9999999999999959 0.9999999999999958 0.9999999999999952 0.9999999999904714 0.9999998562355059 0.999371230676754 0.012092709624936243 7.452848947830908e-05 3.64892371140565e-07 0.0003271921535970619 0.9996145709321959 0.9998562660953502 0.9999175103907165 0.9999430417977654 0.999956741211871 0.9999653150957365 0.9999712635428479 0.999975702680988 0.999979202102523 0.9999820819812684 0.9999845365749315 0.9999866913584782 0.9999886299645466 0.9999902040632825 0.9999773266122962 0.9994080584315581 0.9865150318219569 0.8284993110190156 0.00010435999304201553 0.9999999999999991 0.9999999999999998 0.9999999999999997 0.9999999999999997 0.9999999999999997 0.9999999999999992 0.9999999999999994 0.999999999999999 0.9999999999999988 0.9999999999999982 0.9999999999999979 0.9999999999999979 0.9999999999999969 0.9999999999999967 0.9999999999999949 0.9999999999828029 0.999999782828039 0.9992174963851963 0.011999968090279235 7.396429442196318e-05 3.623386272976179e-07 0.00032367772848811155 0.9994563670290221 0.9998067415163437 0.9998932893999382 0.9999285384282727 0.999946948677815 0.9999581739994465 0.9999657810565298 0.9999713466318083 0.9999756623465329 0.9999791662267128 0.9999821197117902 0.9999846890214679 0.9999869834873902 0.9999888180559139 0.9999734824023937 0.9993311127423783 0.9854407180300809 0.8222687856146474 0.0001038744337357648 0.999999999999999 1.0 0.9999999999999997 0.9999999999999998 0.9999999999999994 0.9999999999999992 0.9999999999999989 0.9999999999999992 0.9999999999999982 0.9999999999999979 0.9999999999999973 0.999999999999997 0.9999999999999967 0.9999999999999963 0.9999999999999951 0.9999999999703784 0.9999996831959452 0.9990455580068323 0.011872375428655466 7.276131869423053e-05 3.5514290373772487e-07 0.0003196974464362691 0.9992723878040872 0.9997515256092678 0.9998670102476109 0.9999131299517462 0.999936757347943 0.999950885209311 0.9999602847534972 0.9999670485746541 0.9999722179444671 0.9999763627776092 0.9999798195500705 0.9999827998178378 0.9999854408567151 0.9999874971393785 0.9999686726564908 0.9992320193185121 0.9841258107204881 0.8150023505186892 0.00010330611798394472 0.9999999999999992 0.9999999999999998 0.9999999999999999 0.9999999999999997 0.9999999999999994 0.9999999999999993 0.9999999999999986 0.9999999999999984 0.9999999999999979 0.9999999999999973 0.9999999999999967 0.9999999999999959 0.9999999999999961 0.9999999999999958 0.9999999999999937 0.9999999999503149 0.9999995478540256 0.9988508718170432 0.01170880342219316 7.106638644392161e-05 3.4445158350345724e-07 0.00031528488713998955 0.9990643023330003 0.9996916294276065 0.9998392150409852 0.9998971346021506 0.9999263486915193 0.9999435553389701 0.9999548370944524 0.9999628452714363 0.9999688898977944 0.9999736830473651 0.9999776416778785 0.9999810257543498 0.9999840018003785 0.9999862271856146 0.9999625295714752 0.9991057808817186 0.9825442417442931 0.8067169580482687 0.00010264955615655924 0.9999999999999988 0.9999999999999998 0.9999999999999994 0.999999999999999 0.9999999999999993 0.9999999999999989 0.999999999999998 0.9999999999999982 0.9999999999999976 0.9999999999999969 0.9999999999999962 0.9999999999999952 0.9999999999999946 0.9999999999999937 0.9999999999999907 0.9999999999172283 0.9999993625255141 0.9986286006961757 0.011514733525342203 6.898550796992409e-05 3.311944708110204e-07 0.00031047501614284693 0.9988338580629545 0.9996279312386149 0.9998103751343196 0.9998808178355393 0.9999158780613908 0.9999362746572742 0.9999494906100896 0.999958766074832 0.9999656937061063 0.9999711339833358 0.9999755877949469 0.9999793655144444 0.999982663010521 0.999984984526981 0.9999545492031632 0.998946223339003 0.9806680263767567 0.7974402705119822 0.00010189915708507326 0.9999999999999981 0.9999999999999994 0.9999999999999994 0.9999999999999992 0.9999999999999992 0.9999999999999987 0.9999999999999977 0.9999999999999974 0.9999999999999972 0.9999999999999976 0.9999999999999961 0.9999999999999958 0.9999999999999951 0.9999999999999938 0.9999999999999851 0.9999999998417383 0.9999990985304333 0.9983729719873415 0.011295098526132133 6.661355394550827e-05 3.1615583679810475e-07 0.0003053008973841326 0.9985828065918722 0.9995611280929305 0.9997808343086106 0.999864368447459 0.9999054527010749 0.9999291040571635 0.999944277918666 0.9999548271675391 0.9999626353398133 0.9999687153238532 0.9999736540997469 0.9999778134995663 0.9999814174422662 0.9999837322133652 0.9999440493107484 0.998745984397335 0.9784687939629839 0.7872145270986212 0.00010104956436457394 0.9999999999999976 0.9999999999999989 0.9999999999999989 0.9999999999999988 0.9999999999999983 0.9999999999999981 0.9999999999999978 0.9999999999999971 0.9999999999999968 0.999999999999997 0.9999999999999962 0.9999999999999954 0.9999999999999946 0.9999999999999923 0.999999999999963 0.9999999996712422 0.9999986263767698 0.9980253621214954 0.011056227138692476 6.409971800208484e-05 3.005599860208921e-07 0.00029979262198433817 0.9983128035665896 0.9994916457104561 0.9997507787944739 0.9998478830301681 0.9998951223795972 0.9999220671741577 0.9999392075798479 0.9999510278971492 0.9999597088813983 0.9999664185710757 0.9999718309254128 0.9999763597086827 0.9999802543417211 0.9999824152191326 0.9999301265546107 0.9984965344389497 0.9759198235303136 0.7761006550457225 0.00010009598506608856 0.9999999999999968 0.9999999999999981 0.9999999999999987 0.9999999999999983 0.9999999999999979 0.9999999999999979 0.9999999999999983 0.9999999999999968 0.9999999999999968 0.9999999999999956 0.9999999999999961 0.9999999999999953 0.999999999999995 0.9999999999999923 0.9999999999998966 0.9999999993064761 0.9999979011397263 0.9976114286692445 0.010799521955565996 6.142528593534578e-05 2.8412822916907887e-07 0.0002939762134144397 0.9980253341312418 0.9994195641978229 0.9997202140725132 0.9998313537178641 0.9998848745270464 0.9999151479433127 0.999934261497117 0.9999473494814779 0.9999568960217776 0.9999642262575044 0.9999701021523135 0.9999749896699344 0.9999791587026193 0.9999809535550964 0.9999116157741168 0.9981883581528204 0.9729985569377034 0.7641804268713103 9.903456876222804e-05 0.999999999999996 0.999999999999998 0.9999999999999986 0.9999999999999977 0.9999999999999972 0.999999999999997 0.999999999999997 0.9999999999999967 0.999999999999996 0.9999999999999952 0.9999999999999954 0.9999999999999947 0.9999999999999939 0.9999999999999922 0.9999999999996642 0.9999999985345448 0.9999968016570717 0.9971191190030538 0.010527563452756199 5.863862542713636e-05 2.672599461567747e-07 0.0002878728140528554 0.9977216642896438 0.9993445421077772 0.9996889322727774 0.999814656641198 0.9998746267000914 0.9999082863795936 0.9999293935784759 0.9999437546967909 0.9999541657201005 0.999962112245598 0.9999684456825497 0.9999736846209318 0.9999781110512848 0.9999792336831752 0.9998870599980911 0.9978114127596454 0.9696903323016933 0.7515624604661403 9.786291240157e-05 0.9999999999999958 0.9999999999999971 0.9999999999999979 0.9999999999999971 0.9999999999999963 0.9999999999999969 0.9999999999999959 0.9999999999999954 0.9999999999999948 0.9999999999999938 0.9999999999999941 0.999999999999993 0.9999999999999928 0.9999999999999905 0.9999999999988584 0.9999999969153105 0.999995146053059 0.9965344380164742 0.010244584057577059 5.5794905966602494e-05 2.5028377837324516e-07 0.00028149797748653824 0.9974027691435554 0.999265733206502 0.9996564803147708 0.9997975395676559 0.9998642231842315 0.99990137772466 0.9999245279080957 0.9999401862289321 0.9999514733955323 0.9999600412729082 0.999966833080209 0.9999724213796689 0.9999770862847722 0.9999770986988032 0.9998547149203945 0.9973559145112132 0.9659923805077127 0.7383839196081328 9.658051940100737e-05 0.9999999999999956 0.9999999999999968 0.9999999999999972 0.9999999999999961 0.9999999999999953 0.9999999999999954 0.9999999999999957 0.9999999999999951 0.9999999999999954 0.9999999999999923 0.9999999999999933 0.9999999999999925 0.9999999999999934 0.9999999999999891 0.9999999999961372 0.9999999935550795 0.9999926684599161 0.9958416875105112 0.009952266749285812 5.292384520804041e-05 2.3343085795213479e-07 0.00027486078414163154 0.9970693126852499 0.9991816917387091 0.9996221093379782 0.9997795971975332 0.9998534211422431 0.9998942633903651 0.999919554953691 0.9999365647261858 0.9999487599455471 0.9999579679554095 0.999965229279262 0.9999711722726823 0.9999760522620257 0.9999743394516306 0.9998126141116023 0.9968135086393777 0.9619189487531469 0.724814739713107 9.518929399292136e-05 0.999999999999996 0.9999999999999964 0.9999999999999969 0.9999999999999959 0.9999999999999943 0.9999999999999952 0.9999999999999948 0.9999999999999938 0.9999999999999938 0.999999999999992 0.9999999999999931 0.9999999999999931 0.9999999999999927 0.9999999999999738 0.999999999987261 0.999999986673495 0.9999889867272089 0.995023502484512 0.009653378946753135 5.0064031880850574e-05 2.1692120099491508e-07 0.00026796291889670873 0.9967215927601075 0.9990902406920007 0.9995846977471782 0.9997602301602051 0.9998418686593105 0.9998867201608921 0.9999143240565631 0.9999327843722617 0.9999459483287594 0.9999558352654414 0.9999635913276027 0.9999699038997005 0.9999749671280808 0.9999706904437883 0.9997587304101071 0.9961790349765874 0.957507174387866 0.7110593829183793 9.369405005131464e-05 0.9999999999999954 0.9999999999999961 0.9999999999999954 0.9999999999999952 0.9999999999999933 0.9999999999999947 0.999999999999995 0.9999999999999938 0.9999999999999929 0.9999999999999916 0.9999999999999928 0.9999999999999911 0.9999999999999921 0.999999999999893 0.9999999999594559 0.999999972807626 0.9999835607354124 0.9940612025361018 0.009350692578416744 4.7241073143198296e-05 2.009221395268194e-07 0.00026079761963037625 0.9963594546356064 0.9989883169388899 0.9995426241397561 0.9997385726053443 0.9998290643371907 0.9998784355154814 0.999908629566709 0.9999287036979714 0.9999429385338249 0.9999535709535605 0.9999618660006423 0.999968575514699 0.9999737766819926 0.9999658378572515 0.9996912666922299 0.9954526193075065 0.9528220161425405 0.697359783783285 9.2102889485639e-05 0.9999999999999951 0.9999999999999959 0.9999999999999947 0.9999999999999954 0.999999999999993 0.999999999999994 0.9999999999999938 0.9999999999999933 0.999999999999992 0.9999999999999916 0.9999999999999913 0.9999999999999907 0.9999999999999885 0.999999999999499 0.9999999998762708 0.9999999454049472 0.9999756427529173 0.9929352599220967 0.009045169901720112 4.447649068434212e-05 1.8552356860024485e-07 0.0002533478490198928 0.9959822431965869 0.9988717486544411 0.9994935681218766 0.9997133676030662 0.9998142846824064 0.9998689657411957 0.9999021842879458 0.9999241300429652 0.9999395974255859 0.9999510810433642 0.9999599862605396 0.9999671362076696 0.9999724114091733 0.999959448140422 0.9996090964726999 0.9946422396380309 0.9479614707881829 0.6839939558224217 9.042759245679344e-05 0.9999999999999949 0.9999999999999956 0.9999999999999944 0.9999999999999948 0.999999999999992 0.9999999999999938 0.9999999999999933 0.999999999999992 0.9999999999999906 0.9999999999999901 0.9999999999999907 0.9999999999999888 0.9999999999999604 0.9999999999977572 0.9999999996396111 0.9999998924689422 0.9999642236184423 0.9916263034398244 0.008739724184311053 4.1794578355478614e-05 1.7084161259534323e-07 0.0002455839043186032 0.9955886477752831 0.9987349542811972 0.9994341924720234 0.9996827570455501 0.9997964563651539 0.999857658987077 0.9998945746362647 0.9999187914680703 0.9999357413984337 0.9999482395147311 0.9999578638324064 0.999965520013909 0.9999707850253979 0.9999512264344737 0.9995123516216506 0.9937661577853688 0.9430594601278048 0.6712740394367674 8.868374018170788e-05 0.9999999999999937 0.9999999999999944 0.9999999999999934 0.9999999999999927 0.9999999999999917 0.9999999999999922 0.9999999999999929 0.9999999999999917 0.99999999999999 0.9999999999999893 0.9999999999999893 0.9999999999999779 0.9999999999997904 0.9999999999907528 0.9999999990019202 0.9999997928781095 0.9999479844990109 0.9901164068070466 0.008435585805627734 3.9205384247080465e-05 1.5689814959442521e-07 0.00023745935653172415 0.9951765116136879 0.9985705027157985 0.9993596344966947 0.9996439149403836 0.9997739248290225 0.9998435141679556 0.9998851746006874 0.9999122847795843 0.999931105115705 0.999944868289405 0.9999553773397505 0.9999636381105834 0.9999687953377149 0.9999410061713586 0.9994030685059022 0.9928549373211225 0.9382867573863433 0.6595430737669041 8.68906817063409e-05 0.9999999999999926 0.9999999999999932 0.9999999999999925 0.9999999999999917 0.9999999999999906 0.9999999999999922 0.9999999999999925 0.9999999999999906 0.9999999999999886 0.9999999999999852 0.9999999999999761 0.9999999999999053 0.999999999998904 0.9999999999651944 0.9999999973804508 0.9999996111168772 0.9999252730474957 0.9883912377440948 0.008134636867443559 3.67249376617971e-05 1.4373788777636774e-07 0.0002289050659831629 0.994742566288225 0.9983685212767124 0.9992627012566205 0.9995924120258911 0.9997440287348275 0.9998249156109967 0.9998729816406509 0.9999039756186702 0.9999252805209762 0.99994070162142 0.9999523506371097 0.9999613658202372 0.9999663281297936 0.9999288629872108 0.999285749264112 0.9919521740798732 0.9338470676820961 0.6491685503623248 8.507127926905565e-05 0.9999999999999886 0.999999999999988 0.9999999999999889 0.9999999999999869 0.9999999999999858 0.9999999999999849 0.9999999999999837 0.9999999999999772 0.9999999999999682 0.9999999999999455 0.9999999999998698 0.9999999999994474 0.9999999999948224 0.9999999998805408 0.999999993503788 0.9999992906706305 0.9998941283583768 0.9864425846742948 0.007839314443546524 3.4367951808626975e-05 1.3137564869729363e-07 0.00021981868823199433 0.9942818756275297 0.998115736158052 0.9991325597577645 0.9995210844884221 0.999702286706236 0.9997990934940622 0.9998562805898902 0.9998927930850102 0.9999175930314428 0.9999353109891664 0.9999485080339351 0.999958518101382 0.9999632599823222 0.9999152178837063 0.9991676341963311 0.9911134243613751 0.9299695244119747 0.6405325024666192 8.325123392280004e-05 0.9999999999999379 0.9999999999999355 0.9999999999999317 0.9999999999999253 0.9999999999999165 0.9999999999999012 0.9999999999998802 0.9999999999998407 0.9999999999997686 0.9999999999996079 0.9999999999991305 0.9999999999969541 0.9999999999782248 0.9999999996258633 0.9999999848212004 0.9999987474593656 0.9998524038120682 0.9842720502701715 0.0075514770637329824 3.214338335326874e-05 1.198069239622659e-07 0.0002100467327796289 0.9937867961664479 0.9977939003997737 0.9989525114912351 0.9994179228889966 0.9996407628146264 0.9997609814887691 0.9998318906602969 0.9998767569545324 0.9999068144986117 0.9999279355866211 0.9999433761481158 0.9999547956225217 0.9999594464326163 0.9999008832313641 0.9990584274250227 0.990402493693906 0.9268948199133822 0.6340208213986985 8.145826685100075e-05 0.999999999999281 0.9999999999992609 0.9999999999992276 0.9999999999991784 0.999999999999106 0.9999999999989966 0.9999999999988342 0.9999999999985717 0.9999999999981084 0.9999999999971589 0.9999999999946723 0.9999999999850595 0.9999999999181307 0.9999999989293245 0.9999999666718358 0.9999978665360397 0.9997980225223001 0.981895162935057 0.007272893588550422 3.0058805801432008e-05 1.0899003282640815e-07 0.00019935255371690062 0.9932444600691474 0.9973764278044224 0.9986955320517327 0.9992616231404463 0.9995443425079724 0.9997004435027931 0.9997932475488354 0.9998517234682487 0.9998903821320445 0.999917015325094 0.9999360166499822 0.9999496413165181 0.9999546578420752 0.9998869841470582 0.9989693027266285 0.9898851304515143 0.9248574939231587 0.6300099684559172 7.97209963518245e-05 0.9999999999920958 0.9999999999919498 0.9999999999917372 0.9999999999914408 0.9999999999910294 0.9999999999904439 0.9999999999895838 0.9999999999882428 0.9999999999859532 0.9999999999814871 0.9999999999707285 0.9999999999342177 0.9999999997222709 0.9999999971954511 0.9999999314082874 0.999996507630271 0.9997294239988302 0.9793463767798639 0.007006375428144731 2.8125113079797512e-05 9.889563729687329e-08 0.00018734962299613248 0.9926257026569207 0.9968165027840196 0.9983112914202238 0.9990089069282421 0.9993798282397309 0.9995937479519429 0.999724243563123 0.9998072198275123 0.9998617427227118 0.999898593762279 0.9999241179468942 0.9999417558435548 0.9999483304150742 0.9998746571333578 0.9989111703621546 0.9896203459370992 0.9240633702175189 0.6288508112638476 7.806756061781437e-05 0.9999999999231547 0.9999999999222968 0.9999999999215367 0.999999999920788 0.9999999999199147 0.9999999999186578 0.9999999999165757 0.999999999912797 0.9999999999054784 0.9999999998900868 0.9999999998527151 0.9999999997343755 0.9999999991390228 0.9999999932582079 0.9999998680011912 0.9999945268531334 0.9996462065969884 0.9766840945568923 0.006753986649657242 2.6347691683604036e-05 8.943034396165386e-08 0.00017335180350561868 0.9918165374468031 0.9959795565348065 0.9976616473144517 0.9985365213260737 0.9990473680790793 0.9993657140906527 0.9995716595241076 0.9997076263451823 0.999798304853747 0.9998590854347897 0.9998999377841692 0.9999269786354563 0.9999385167380339 0.9998642936271092 0.9988923629109703 0.9896510422144834 0.924666631504336 0.6308520972049523 7.652414002194837e-05 0.9999999993305998 0.9999999993277217 0.9999999993311555 0.9999999993403307 0.9999999993543839 0.999999999371791 0.9999999993901716 0.9999999994054749 0.9999999994104557 0.9999999993897027 0.9999999993014481 0.9999999989880173 0.9999999975152131 0.9999999850622552 0.9999997630189871 0.9999918208969333 0.9995499331714791 0.973995318699595 0.006518525499851009 2.4733038431245777e-05 8.046580439377613e-08 0.00015597739709662808 0.9900630104990459 0.9941131246763356 0.9960429494278514 0.9972346939040674 0.9980542861826391 0.998643137614372 0.9990695648857711 0.9993744694006967 0.9995873086566522 0.9997315523150427 0.9998262745337448 0.9998860718721185 0.9999161593622955 0.99985279817145 0.9989157278389327 0.9899950780183655 0.9267475849300778 0.6362632950397593 7.511352826472138e-05 0.9999999946912203 0.9999999947011612 0.9999999947967272 0.9999999949717313 0.9999999952159724 0.9999999955145336 0.9999999958481317 0.9999999961908793 0.9999999965072676 0.9999999967412605 0.9999999967739873 0.9999999962262192 0.9999999931243659 0.9999999692390897 0.9999996038756843 0.9999883929502973 0.9994449545550512 0.971398984413378 0.006303167486608844 2.328874766407966e-05 7.17672357702583e-08 0.00013185524287854484 0.98055112322279 0.9847342908006644 0.9876739823717244 0.9902661821810738 0.9925949742646345 0.9946059936676067 0.996248220744967 0.9975114749308736 0.9984264207308237 0.9990505235859657 0.9994513693915226 0.9996930929685878 0.9998237031586528 0.9998166135242019 0.9989714092526683 0.9906383965874691 0.930296361813925 0.6452579678571263 7.385381099930684e-05 0.9999999611086606 0.9999999613914061 0.9999999625041414 0.9999999643713278 0.9999999668801747 0.9999999698793156 0.9999999731875818 0.9999999766013484 0.9999999798970586 0.9999999828185535 0.9999999850016993 0.9999999855950364 0.9999999808471587 0.9999999400310002 0.9999993842002487 0.9999844269576376 0.9993390008326795 0.9690464952294457 0.006110542861534928 2.2020191814998017e-05 6.282306086971061e-08 9.020000681962234e-05 0.8876717888940011 0.8968643176388337 0.9104301703454881 0.9267114177706264 0.9434630071582955 0.9588354342743961 0.971695998029484 0.9816271844751459 0.9887564356931019 0.9935295940493876 0.9965110796618633 0.9982438479129319 0.9991704178917628 0.9995601570737395 0.9989851311909073 0.9915197902055188 0.9352031045628342 0.6579214091824024 7.275735188045213e-05 0.9999997334478317 0.9999997366203909 0.9999997464274737 0.9999997621660829 0.9999997827756584 0.9999998069469986 0.9999998331572129 0.9999998598306434 0.9999998854196425 0.9999999084963292 0.9999999276808812 0.9999999410401187 0.9999999421606572 0.9999998842361848 0.999999108109967 0.9999803384452722 0.999243192477386 0.9671181373163487 0.005944043539512057 2.0930281163754494e-05 5.3285271616251946e-08 2.7744551727488816e-06 0.05368627135540615 0.04918021958308 0.14688887603883227 0.29283542555773523 0.4528243845253249 0.6027574281391755 0.7286955122271385 0.8255493017807592 0.8945031327317549 0.9401842896286183 0.968374851231772 0.9845371985303807 0.9930856614860997 0.9971584488597807 0.9982888757694611 0.9923882516395979 0.9412328894978911 0.6742390216072642 7.18301408666211e-05 0.9999982728151044 0.9999982996594973 0.9999983731034097 0.9999984874645795 0.9999986347362527 0.9999988050256217 0.9999989872704512 0.9999991703771076 0.9999993440753892 0.9999994997405751 0.9999996308010093 0.9999997320876651 0.9999997940128191 0.9999997537115541 0.9999987807973342 0.9999767563924069 0.99917107618857 0.9658140154625455 0.005806847932108369 2.002628235846775e-05 5.1566583856305685e-08 3.367238810431923e-05 0.43383609214825847 0.42344395588992406 0.4080400483879686 0.3853478771560599 0.3725743611657166 0.405052994769166 0.48395115877733974 0.5907907373594198 0.7026701884462837 0.8018439405095096 0.8791020599991756 0.9328635402030667 0.966429698169776 0.9851082864473297 0.9937794592194306 0.9921478472239904 0.9478719368398938 0.6940690836970878 7.107150733502998e-05 0.9999893349985498 0.9999895271623722 0.999990014821547 0.9999907595289949 0.9999917080756632 0.9999927961354536 0.9999939528481536 0.9999951079975944 0.9999961975523151 0.9999971695805282 0.9999979880217815 0.9999986331133126 0.9999990935031841 0.9999993041567135 0.999998327290853 0.9999743790254872 0.99913653254295 0.9653389848840842 0.005702169086595783 1.930982619896975e-05 5.0048156610326205e-08 4.841619646876899e-05 0.4988308931093146 0.4846756221042925 0.47201997782429006 0.460987492110842 0.45082060058531875 0.4373767884439779 0.4377888001431685 0.47156756821598045 0.5420675771609097 0.6374953272814288 0.7393100414014216 0.8307787886462307 0.9018670555152363 0.9500042612992398 0.9778743791363413 0.987511973952653 0.9538537354163675 0.7170692600681464 7.04742271151067e-05 0.9999369539685089 0.9999381740242987 0.9999411042456453 0.9999455219463875 0.9999511209743746 0.9999575325243288 0.9999643531967761 0.999971178634063 0.999977638659228 0.9999834303802015 0.9999883397604021 0.9999922561065258 0.9999951614655447 0.9999970522397464 0.9999970689634429 0.9999735545572839 0.9991506354367584 0.9658791397469251 0.0056326057668224135 1.8778483152733586e-05 4.8745918517745725e-08 5.632052848674913e-05 0.5167851114636932 0.49464645151324743 0.47702094258743555 0.46381695575008147 0.4545809874310401 0.4486160449229952 0.44226946311149473 0.44319558429555045 0.46577928015806086 0.5194652091372564 0.6020777786333446 0.7008790408813357 0.7987604436873419 0.8810885069403025 0.9398231692172763 0.9719094150119499 0.9562989754636485 0.7424487576356688 7.002449643860625e-05 0.9996433041243746 0.999650222086624 0.9996662206933257 0.9996901704765929 0.9997205553294026 0.9997555177185209 0.9997930036733484 0.9998309211873602 0.999867296817483 0.9999004373285232 0.9999290689976553 0.9999524300906395 0.9999702955239143 0.9999828752158021 0.9999899246953842 0.9999724208826264 0.999217488127252 0.9675838076688403 0.005600759153855766 1.8420273422243095e-05 4.770986584950067e-08 6.125149171368184e-05 0.5250565141932119 0.49279257149313155 0.46846502500981096 0.45098944509338673 0.4393587591245969 0.43269768520640295 0.42966840057292066 0.4284013975159412 0.43355280985254196 0.4552572986620183 0.5032464378577989 0.5799332852593015 0.6775066150268281 0.7804468822276561 0.8714843739427288 0.9362808517060818 0.9498127863531143 0.7685258548240064 6.970192604186785e-05 0.9980822601932755 0.9981174642603609 0.9981960239439829 0.9983135537960457 0.998463490053908 0.9986379217343778 0.9988277947080668 0.9990235820801899 0.999215817037648 0.999395828572853 0.9995564149460577 0.9996924020332337 0.999801027162531 0.9998820030179114 0.9999366596231561 0.9999525119665207 0.9993274864386774 0.9704913600394817 0.005597527628242168 1.8181464218292293e-05 4.673876834104116e-08 6.45777359203808e-05 0.5297950783752386 0.48485070534539143 0.45272138872362727 0.430308318625312 0.41557818877448666 0.4071300019235559 0.4039330151482679 0.40402343295702875 0.4070885127374654 0.41659741790601035 0.44045413183200666 0.48785168997780237 0.5635922389411182 0.6634336470049836 0.7733074865235536 0.872257950307294 0.9261649356813304 0.7917778470896434 6.947960465397831e-05 0.9903736382940288 0.9905281592435174 0.9908664516964484 0.9913731452115547 0.9920268507096157 0.9928000102669676 0.9936601778320007 0.9945713027553311 0.9954953121669355 0.9963942044158551 0.9972325437291213 0.9979800614215493 0.9986140497066034 0.9991211587105852 0.9994985167095092 0.9997419505465173 0.9993988706895965 0.9747083467079856 0.005659542388270606 1.8027745242961775e-05 4.569625771395306e-08 6.690055610393299e-05 0.5327780074208668 0.47143810867048164 0.43022204864015134 0.40241425123588004 0.38429950671289165 0.37376151689733245 0.3694308268676945 0.3696540119263422 0.37315276246604173 0.38022174462226216 0.3938747577391737 0.42087710680497664 0.4701991186068136 0.5486042104358647 0.655055561832013 0.7759607865941198 0.8751134729155466 0.80614136696814 6.93262077976709e-05 0.9563539269447777 0.9569081946789785 0.9581082625008224 0.9599174877915317 0.9622883271710613 0.9651538696450603 0.9684326033694967 0.9720260186325723 0.9758220700153881 0.9796971679664127 0.983519736108839 0.9871577840029859 0.9904847984424335 0.9933948443161112 0.9957966502175899 0.9976509078416489 0.9986253840764888 0.9792436171989823 0.0055275876593841285 1.7316953215064432e-05 5.6101510653631514e-08 6.877569365123482e-05 0.5347194988948074 0.45033894982087763 0.3987626007317675 0.3648276783448592 0.34284629174844056 0.3300595875189778 0.32450744