# vtk DataFile Version 3.0
vtk output
ASCII
DATASET RECTILINEAR_GRID
DIMENSIONS 41 41 1
X_COORDINATES 41 double
0 1 2 3 4 5 6 7 8 9 10 11 12 13 14 15 16 17 18 19 20 21 22 23 24 25 26 27 28 29 30 31 32 33 34 35 36 37 38 39 40 
Y_COORDINATES 41 double
0 1 2 3 4 5 6 7 8 9 10 11 12 13 14 15 16 17 18 19 20 21 22 23 24 25 26 27 28 29 30 31 32 33 34 35 36 37 38 39 40 
Z_COORDINATES 1 double
0
POINT_DATA 1681
FIELD FieldData 1
Concentracao 1 1681 double
1.0 1.0 1.0 1.0 1.0 0.9999999999999999 0.9999999999999999 0.9999999999999998 0.9999999999999999 0.9999999999999997 0.9999999999999992 0.9999999999999987 0.9999999999999984 0.9999999999999982 0.999999999999998 0.9999999999999979 0.9999999999996637 0.9999999993588594 0.9999995723517432 0.9999991734159155 0.999998773279379 0.9999983765102498 0.9999983764621188 0.9999983764057995 0.9999983763130759 0.9999983761853952 0.9999983760170528 0.9999983758024596 0.9999983755323948 0.9999983751928873 0.9999983747617431 0.9999983742020353 0.9999983734059511 0.999998365755622 0.9999978658239183 0.9999772053260136 0.9994775437279206 0.9922160891866244 0.9293587164448338 0.6275498941207815 4.580419648847565e-05 1.0 1.0 1.0000000000000002 1.0000000000000002 1.0000000000000002 1.0000000000000002 0.9999999999999996 1.0 0.9999999999999992 0.9999999999999988 0.9999999999999982 0.9999999999999978 0.9999999999999976 0.9999999999999977 0.9999999999999948 0.9999999999402871 0.999999759080049 0.9991779199868409 0.013568892677108138 0.00029548927543143077 0.00025998337136406264 0.005613054100526784 0.9999700532030565 0.9999787254770683 0.9999846629857232 0.9999878188732967 0.999989933439999 0.9999914246363681 0.9999925488907799 0.9999934352847716 0.9999941612481971 0.9999947747193523 0.9999953071947818 0.99999577330262 0.999995679131834 0.999974614462132 0.9994607708093227 0.9920528837724734 0.9284465597429081 0.6254018448341304 4.563624946368946e-05 0.9999999999999998 1.0 1.0 1.0000000000000002 1.0000000000000002 1.0000000000000002 0.9999999999999998 0.9999999999999996 0.9999999999999996 0.9999999999999989 0.9999999999999987 0.9999999999999984 0.9999999999999983 0.9999999999999986 0.9999999999999813 0.9999999997124966 0.9999988298006693 0.9983070408473067 0.008918581012973086 3.950262687650554e-05 2.0914423341264262e-07 0.00026038281264176955 0.9999240731945092 0.9999619624440195 0.999972314410157 0.9999784426263041 0.9999823351334092 0.9999851117723151 0.9999872098125573 0.9999888742987336 0.9999902450842867 0.9999914097377821 0.9999924257994424 0.9999933250768949 0.9999935743525041 0.9999711645968483 0.9994272064539617 0.9917185371262447 0.9266019874082071 0.6211253060366926 4.537108510756024e-05 0.9999999999999998 1.0 0.9999999999999999 0.9999999999999999 1.0 1.0 1.0 0.9999999999999998 0.9999999999999998 0.9999999999999991 0.9999999999999989 0.9999999999999986 0.9999999999999986 0.9999999999999983 0.999999999999935 0.9999999991310908 0.9999973317661679 0.9974390846620107 0.008917426978382327 3.917622113717733e-05 1.4897950135309195e-07 0.0002536920199321366 0.9998484075425329 0.9999342807685488 0.9999575078642007 0.9999680818039881 0.9999744533649947 0.9999787733531473 0.9999819604309426 0.9999844483519288 0.9999864771548113 0.9999881899873655 0.9999896784204946 0.9999909947658437 0.9999915314897845 0.99996663005418 0.9993740259011268 0.9911946681642613 0.9237808593812838 0.6147362205270971 4.5007208154746204e-05 0.9999999999999996 1.0 1.0 0.9999999999999998 1.0 0.9999999999999998 0.9999999999999996 0.9999999999999997 0.9999999999999994 0.9999999999999994 0.9999999999999993 0.9999999999999993 0.9999999999999983 0.9999999999999978 0.9999999999998147 0.9999999979934228 0.9999952422512947 0.9965157213824231 0.008659293049193861 3.8786329555888036e-05 1.4951755963056708e-07 0.0002512397797367488 0.9997456068443795 0.9998991474200366 0.9999390262079596 0.9999562892782781 0.9999659208527707 0.9999721782010176 0.9999766458854046 0.999980056541872 0.9999827929060348 0.9999850759303235 0.9999870427042337 0.9999887713894073 0.9999895305883731 0.9999606357116964 0.9992967838850878 0.9904548022617828 0.9199254062167145 0.6062656738491002 4.454250552623471e-05 0.9999999999999992 0.9999999999999999 1.0 0.9999999999999999 0.9999999999999997 0.9999999999999996 0.9999999999999997 0.9999999999999988 0.9999999999999986 0.9999999999999979 0.9999999999999974 0.9999999999999971 0.9999999999999959 0.9999999999999958 0.9999999999995461 0.9999999959938671 0.9999923376025739 0.9955161602546455 0.008520519969781367 3.802163384208148e-05 1.4731325143293463e-07 0.0002482652809628538 0.9996144902046431 0.9998562096871749 0.9999174629601941 0.9999429998579095 0.9999567033758548 0.9999652806204389 0.9999712319521967 0.9999756736306619 0.9999791753176258 0.9999820572145403 0.999984513426126 0.9999866527430356 0.9999875438597777 0.9999525931945761 0.9991889521939643 0.9894632349104496 0.9149632305822866 0.5957650488035142 4.3974607958190006e-05 0.9999999999999991 0.9999999999999998 0.9999999999999997 0.9999999999999997 0.9999999999999997 0.9999999999999992 0.9999999999999994 0.999999999999999 0.9999999999999988 0.9999999999999982 0.9999999999999979 0.9999999999999979 0.9999999999999969 0.9999999999999967 0.9999999999989849 0.9999999926143489 0.9999883575634062 0.9944087138716926 0.008344496489774457 3.6891516810487604e-05 1.4244270242188798e-07 0.0002447802516365888 0.999456273742297 0.9998066804708032 0.9998932389239501 0.9999284939281913 0.9999469084478557 0.9999581371932895 0.9999657471683283 0.9999713153158686 0.9999756333366575 0.9999791392861053 0.9999820943607507 0.9999846403880893 0.9999855248792874 0.9999415938718921 0.9990414073379174 0.9881737623569552 0.9088118131902779 0.5833067718173803 4.3301098246358e-05 0.999999999999999 1.0 0.9999999999999997 0.9999999999999998 0.9999999999999994 0.9999999999999992 0.9999999999999989 0.9999999999999992 0.9999999999999982 0.9999999999999979 0.9999999999999973 0.999999999999997 0.9999999999999967 0.9999999999999963 0.9999999999978388 0.999999987017625 0.9999829205624045 0.9931674784190717 0.008147613369714589 3.548255282914848e-05 1.360250125949534e-07 0.0002408225724227922 0.9992722799068702 0.9997514596324444 0.9998669568109484 0.9999130831233244 0.9999367150308847 0.99995084641508 0.9999602489216725 0.9999670153403105 0.999972187037073 0.9999763339599155 0.9999797921658551 0.9999827353115058 0.9999833919283553 0.9999262477083154 0.9988414676209311 0.9865279908565945 0.9013812533379421 0.5689888020743588 4.251984563575871e-05 0.9999999999999992 0.9999999999999998 0.9999999999999999 0.9999999999999997 0.9999999999999994 0.9999999999999993 0.9999999999999986 0.9999999999999984 0.9999999999999979 0.9999999999999973 0.9999999999999967 0.9999999999999959 0.9999999999999961 0.9999999999999958 0.99999999999547 0.9999999777822841 0.9999754886712593 0.991759580566202 0.007927791871036538 3.386937221563558e-05 1.2854017308165753e-07 0.00023642802638684446 0.9990641779013559 0.9996915582424847 0.999839158681494 0.9998970855982365 0.9999263044962228 0.9999435147947271 0.9999547995690058 0.9999628103679414 0.9999688573309817 0.9999736525687443 0.9999776122487037 0.999980934014831 0.9999810015698859 0.9999044460296602 0.9985719653639633 0.9844563241333089 0.8925810716568778 0.552938560598073 4.1629507267364165e-05 0.9999999999999988 0.9999999999999998 0.9999999999999994 0.999999999999999 0.9999999999999993 0.9999999999999989 0.999999999999998 0.9999999999999982 0.9999999999999976 0.9999999999999969 0.9999999999999962 0.9999999999999952 0.9999999999999946 0.9999999999999934 0.9999999999895017 0.9999999621763137 0.9999652468383485 0.99014984277365 0.007688215363111387 3.210791285794312e-05 1.2037621611753888e-07 0.00023163250471102212 0.9988337153052954 0.9996278545966639 0.9998103158688665 0.9998807667612553 0.9999158321342294 0.9999362325307719 0.9999494515683008 0.9999587296797471 0.999965659649773 0.9999711019928451 0.9999755559763359 0.9999792241396934 0.9999781039174345 0.9998730142841495 0.9982101231050788 0.9818764644368118 0.8823263274908513 0.5353134350786687 4.0629881558393165e-05 0.9999999999999981 0.9999999999999994 0.9999999999999994 0.9999999999999992 0.9999999999999992 0.9999999999999987 0.9999999999999977 0.9999999999999974 0.9999999999999972 0.9999999999999976 0.9999999999999961 0.9999999999999958 0.9999999999999951 0.9999999999999866 0.9999999999623541 0.9999999245736336 0.9999505407354509 0.9882960683518307 0.00743192691452664 3.0249628023288882e-05 1.118631313329527e-07 0.0002264698660633347 0.9985826438479474 0.9995610457714224 0.9997807721397481 0.9998643153737654 0.9999054051428855 0.9999290604641871 0.9999442374825814 0.9999547894025517 0.9999625999087501 0.9999686819043978 0.9999736187917547 0.9999775775095471 0.9999742674266141 0.999827222890964 0.9977261675242286 0.9786956101372465 0.8705478405899523 0.5163043878598479 3.952241874895486e-05 0.9999999999999976 0.9999999999999989 0.9999999999999989 0.9999999999999988 0.9999999999999983 0.9999999999999981 0.9999999999999978 0.9999999999999971 0.9999999999999968 0.999999999999997 0.9999999999999962 0.9999999999999954 0.9999999999999946 0.9999999999999201 0.9999999998589069 0.9999998379887127 0.999924148926817 0.9857902509757565 0.007164416611946786 2.8400984384024302e-05 1.0360854222702113e-07 0.00022097075689197885 0.9983126192982789 0.9994915574969327 0.9997507137072464 0.9998478279976512 0.9998950732530962 0.9999220221876259 0.9999391658259692 0.9999509888370621 0.9999596721421856 0.9999663837088766 0.9999717891134774 0.999975937434281 0.9999687527987494 0.9997601371426441 0.9970822555899264 0.9748134254868349 0.8572036602728964 0.4961381604114249 3.831064012960663e-05 0.9999999999999968 0.9999999999999981 0.9999999999999987 0.9999999999999983 0.9999999999999979 0.9999999999999979 0.9999999999999983 0.9999999999999968 0.9999999999999968 0.9999999999999956 0.9999999999999961 0.9999999999999953 0.999999999999995 0.9999999999994413 0.9999999994852822 0.9999996511940303 0.999883601593987 0.9828142917815323 0.006885598444858059 2.6523733996088904e-05 9.534939393215475e-08 0.00021516163781663873 0.9980251269070353 0.9994194698653402 0.9997201460249469 0.999831296734417 0.9998848238585549 0.9999151015969955 0.9999342184607967 0.9999473091581391 0.9999568579892679 0.9999641896932815 0.999970045718618 0.9999741927404188 0.9999603111097408 0.9996617959571683 0.9962318741637967 0.9701274812246499 0.8422908376710297 0.47507417909751526 3.7000499248401305e-05 0.999999999999996 0.999999999999998 0.9999999999999986 0.9999999999999977 0.9999999999999972 0.999999999999997 0.999999999999997 0.9999999999999967 0.999999999999996 0.9999999999999952 0.9999999999999954 0.9999999999999947 0.9999999999999852 0.9999999999962844 0.9999999982025459 0.9999992572593818 0.9998222887354443 0.9792877093580499 0.006597616752890398 2.4644686597123486e-05 8.723347455159371e-08 0.00020906396786237342 0.9977214327643272 0.9993444413814758 0.9996888611802797 0.9998145976748275 0.9998745744761783 0.9999082386664286 0.9999293492518337 0.9999437130906362 0.9999541263010766 0.9999620728440928 0.9999683526847343 0.9999721261419549 0.9999468701152352 0.9995182997944555 0.9951200956461661 0.9645421787518447 0.8258601771126217 0.45340640820528144 3.560076028981372e-05 0.9999999999999958 0.9999999999999971 0.9999999999999979 0.9999999999999971 0.9999999999999963 0.9999999999999969 0.9999999999999959 0.9999999999999954 0.9999999999999948 0.9999999999999938 0.9999999999999941 0.9999999999999922 0.9999999999998852 0.999999999977812 0.9999999940187076 0.9999984427508625 0.9997304727691381 0.9751192966380502 0.0063037062123315725 2.2792427692840885e-05 7.937604916500841e-08 0.00020269355710319037 0.9974025120261166 0.9992656257160127 0.999656406023061 0.999797478527419 0.9998641693338648 0.9999013285740062 0.9999244822003194 0.9999401431722275 0.9999514320124843 0.9999599944847063 0.9999666444173533 0.9999693147904838 0.9999250870172924 0.999310968071932 0.9936855868697301 0.9579807978377516 0.8080279886910449 0.43145598114009187 3.412313652941607e-05 0.9999999999999956 0.9999999999999968 0.9999999999999972 0.9999999999999961 0.9999999999999953 0.9999999999999954 0.9999999999999957 0.9999999999999951 0.9999999999999954 0.9999999999999923 0.9999999999999933 0.9999999999999782 0.999999999998947 0.9999999998808631 0.9999999810553383 0.9999967934529916 0.9995942633489576 0.9702100885648681 0.006005543175394242 2.098363446220931e-05 7.185376179605655e-08 0.00019605968269406973 0.9970690286393108 0.9991815768918664 0.9996220315112655 0.9997795338150491 0.999853365390638 0.9998942124608869 0.9999195073470662 0.9999365191882627 0.9999487134463528 0.9999578962880642 0.9999647887950852 0.9999649509880905 0.9998897651451892 0.9990158893227565 0.9918650272435964 0.9504000766055049 0.7889882523364455 0.40956715414610456 3.258229731375366e-05 0.999999999999996 0.9999999999999964 0.9999999999999969 0.9999999999999959 0.9999999999999943 0.9999999999999952 0.9999999999999948 0.9999999999999938 0.9999999999999938 0.9999999999999911 0.9999999999999827 0.9999999999997763 0.9999999999914498 0.9999999994223934 0.9999999429466185 0.9999935286119435 0.9993943029490175 0.9644552098263057 0.005705514424951611 1.923739793349901e-05 6.47303742157744e-08 0.0001891642164676608 0.9967212796785684 0.9990901168783206 0.9995846150212645 0.9997601630213512 0.99984180933542 0.9998866652393585 0.9999142711944942 0.9999327301594303 0.9999458810437202 0.999955675577637 0.9999625006433301 0.9999575425211965 0.999833206127257 0.998604338371176 0.9896005878840554 0.941808607793599 0.7690227246825939 0.3880988642537167 3.099571040596014e-05 0.9999999999999954 0.9999999999999961 0.9999999999999954 0.9999999999999952 0.9999999999999933 0.9999999999999943 0.9999999999999947 0.9999999999999929 0.9999999999999883 0.9999999999999674 0.9999999999998114 0.9999999999975845 0.9999999999405611 0.999999997462193 0.9999998367987091 0.9999872261810446 0.9991042609973578 0.9577482300795863 0.005406020971167863 1.7566344842654304e-05 5.804634496060922e-08 0.00018200052963316342 0.9963591041077812 0.998988175679054 0.9995425278311946 0.9997384921172718 0.9998289901243003 0.9998783622212846 0.9999085512483536 0.9999286077860163 0.999942781393717 0.9999531127772839 0.99995915666618 0.9999444600529934 0.9997446663218292 0.998044684475465 0.9868505938703058 0.9322838725157117 0.748501986893758 0.3674187849033191 2.9383206875282384e-05 0.9999999999999923 0.9999999999999929 0.999999999999991 0.99999999999999 0.9999999999999859 0.9999999999999828 0.9999999999999747 0.9999999999999505 0.999999999999878 0.9999999999995726 0.9999999999976862 0.9999999999785689 0.9999999996444238 0.9999999898673978 0.9999995571458649 0.9999753926915679 0.9986893588941813 0.9499864825603513 0.005108427258478829 1.598039445378491e-05 5.181502696972723e-08 0.0001745516666601873 0.9959818039908044 0.9988715365355921 0.9994934020607652 0.9997132126527548 0.9998141264115015 0.9998687915950977 0.9999019744259885 0.9999238388568142 0.9999390804233029 0.9999496800012112 0.9999534321502646 0.999921327277609 0.9996102106131672 0.9973062767920146 0.9836027926385358 0.9219893685604582 0.7278850815997114 0.3478929159313756 2.7766463051967177e-05 0.9999999999999187 0.9999999999999141 0.9999999999999016 0.9999999999998807 0.9999999999998396 0.9999999999997674 0.9999999999996164 0.9999999999992629 0.9999999999982815 0.9999999999947842 0.999999999977366 0.9999999998436271 0.999999998154456 0.9999999631524598 0.9999988614740852 0.9999538426840435 0.9981052666920399 0.9410799493971022 0.004815259887383546 1.4489294932785444e-05 4.6050076057246215e-08 0.00016678800707329937 0.9955878179300445 0.9987343586186878 0.9994336317843493 0.9996821847703429 0.9997958438051032 0.9998569700998591 0.9998937445578694 0.9999176740262614 0.9999339170053382 0.9999440765958928 0.9999426380984934 0.9998813026631003 0.9994133360312726 0.9963655618635254 0.9798890409650418 0.9111849503678543 0.707709526204219 0.3298782601615826 2.616820693710401e-05 0.9999999999986895 0.9999999999986144 0.9999999999984457 0.9999999999981398 0.9999999999976046 0.999999999996642 0.9999999999947855 0.9999999999907977 0.9999999999808271 0.9999999999499859 0.9999999998222506 0.9999999990464026 0.9999999916184669 0.9999998776804127 0.9999972306657711 0.9999158925886146 0.9972979444934361 0.9309614325292519 0.004528098168179863 1.3096593286278314e-05 4.073776552958391e-08 0.00015866321188048106 0.9951736983621393 0.9985678903105063 0.9993570137077052 0.9996412228555048 0.9997711018141904 0.9998404640162564 0.9998817126483456 0.9999080054542475 0.9999249373642051 0.9999331612696228 0.9999215671192816 0.9998143247038337 0.9991366015168579 0.9952137147833212 0.9757980434363999 0.9002302534460873 0.6885782011939009 0.3137187037589774 2.4611376028229105e-05 0.9999999999827514 0.9999999999818835 0.9999999999799984 0.9999999999766722 0.9999999999710564 0.999999999961406 0.9999999999438767 0.9999999999090097 0.9999999998298972 0.9999999996138311 0.9999999988507129 0.9999999950555787 0.9999999664122593 0.9999996284555176 0.9999936342613093 0.9998514604254188 0.9962052455066996 0.9196011001509323 0.004248915013864406 1.1807012340083415e-05 3.586613830431377e-08 0.00015010823980408296 0.9947302241088238 0.9983562277657047 0.9992503528050753 0.9995799967878206 0.9997314798023296 0.9998120386476472 0.999859336341092 0.999888582456435 0.9999057107755672 0.9999095484466268 0.9998804419764906 0.9997062639926233 0.9987641510482613 0.9938646421896888 0.9714828806497937 0.8895762222769611 0.6711369540000789 0.2997425853722529 2.3118263315896412e-05 0.9999999998159865 0.9999999998080442 0.9999999997914448 0.9999999997630102 0.9999999997166668 0.9999999996405045 0.999999999509703 0.9999999992671141 0.9999999987628425 0.999999997528709 0.9999999937336572 0.9999999778501303 0.9999998802450771 0.9999989647444504 0.9999861849872469 0.9997463184318872 0.9947609886963066 0.907021063821127 0.003979953722809661 1.0623706160936481e-05 3.1413436489142335e-08 0.00014102105016114929 0.9942274393831283 0.9980609870138556 0.9990782798070489 0.9994678897215238 0.9996504801106766 0.9997485196566711 0.9998060841054336 0.999840860226625 0.9998589059201456 0.9998560715746089 0.9998009145196072 0.9995373670748174 0.9982840577693562 0.992360143128749 0.9671600115863676 0.8797457610926711 0.6560531998920349 0.28826290331282445 2.1709598764461554e-05 0.9999999983686104 0.9999999983096433 0.9999999981922566 0.9999999979977834 0.999999997691673 0.9999999972092941 0.9999999964221424 0.9999999950512923 0.9999999924141004 0.9999999865522133 0.9999999705716319 0.9999999129721895 0.9999996169611588 0.9999973464853574 0.9999717143140292 0.9995819379707153 0.9929027887101706 0.8933139596793298 0.0037231246761160893 9.54705740490399e-06 2.7351919304963727e-08 0.00013124956145319405 0.9935603431953778 0.9975670848972383 0.9987310242994842 0.9992060963145355 0.9994413783367919 0.9995749604068264 0.9996579001525377 0.9997103720803658 0.9997379944928758 0.9997322625788688 0.9996470664893362 0.9992779425794361 0.9976883384662256 0.9907695644766193 0.9630960781768229 0.8713004846452523 0.6439880651871219 0.2795835804478962 2.0403875634674992e-05 0.9999999876996827 0.9999999873379007 0.9999999866662747 0.9999999855939224 0.9999999839647863 0.999999981494007 0.9999999776391835 0.9999999712774379 0.9999999598177127 0.999999936351314 0.9999998786430363 0.9999996958199303 0.9999988918018192 0.9999937242025827 0.9999453857032162 0.9993365322242826 0.9905835641171921 0.8786594318701832 0.0034802569267458664 8.576260197830703e-06 2.364595667881868e-08 0.00012056267752961969 0.9923604285369657 0.9964972072320143 0.9978492094862709 0.9984696770454561 0.9988209422967362 0.999051769076334 0.9992172894861583 0.9993378336618257 0.9994166152557218 0.9994389992287842 0.9993425689242237 0.9988754020561738 0.9969658453372406 0.9891799053272436 0.9595810905642591 0.8647974717016877 0.6355717673245369 0.2740087532516609 1.921681159692021e-05 0.9999999195526779 0.9999999177131879 0.9999999146157522 0.9999999099133104 0.9999999030220187 0.9999998929097864 0.999999877675978 0.9999998535194402 0.9999998121095847 0.9999997325426694 0.9999995525558404 0.999999041060349 0.9999970752161371 0.9999862581360975 0.9999005788442363 0.9989879468151414 0.9877871949124422 0.863340908940405 0.0032536243810036237 7.710771148032424e-06 2.0262915747333226e-08 0.00010859644953886432 0.98936424399922 0.9935965396520728 0.9952512561137241 0.9961986298413579 0.9968770936274683 0.9974232236040519 0.9978796753785741 0.998255205207854 0.9985433608159384 0.9987202316840639 0.9987080416396822 0.9982166667802884 0.9960782596601713 0.987670238592668 0.9568874596066663 0.8607356862874724 0.6313739167256079 0.2718532951659112 1.8160973320748003e-05 0.9999995359357478 0.9999995281809804 0.9999995171676226 0.9999995017705469 0.999999480155004 0.9999994491319084 0.9999994029812741 0.9999993306545356 0.9999992089623755 0.9999989827575458 0.9999984987880328 0.9999972342849722 0.9999928939751391 0.9999720342465163 0.9998293474691479 0.9985188191115527 0.9845464606568998 0.8477576483058681 0.0030450543726213367 6.947895259045218e-06 1.7162158615394817e-08 9.475699887923823e-05 0.9803588014585981 0.9847453310005735 0.9871015378756702 0.9889860723524045 0.9907144277184874 0.9923294500225475 0.993797870565349 0.9950725883810883 0.9961126691400948 0.9968774104038108 0.9972809757198886 0.9970199141092011 0.9948940333701518 0.9862612003929772 0.9552137729611055 0.859498701112044 0.6318755427326442 0.2734550843878721 1.724560356273871e-05 0.9999976051253985 0.9999975789882407 0.999997553917789 0.9999975265359027 0.9999974916236123 0.9999974400830252 0.999997356240029 0.9999972108641041 0.9999969461005949 0.9999964325526415 0.9999953338430727 0.9999925887411379 0.9999839369395215 0.9999468538017556 0.9997237126598899 0.9979238209858373 0.980961000079561 0.8324318136361545 0.002856635050736027 6.284924600658161e-06 1.4307710672006142e-08 7.805234802377788e-05 0.9516729522373195 0.9566963003420648 0.9611729971212837 0.9660639403740435 0.9712679874213338 0.9764661542401902 0.9813341512740699 0.9856217225200808 0.9891751406945792 0.9919175571322808 0.9937825009588919 0.994518361225077 0.9930069672624537 0.9848053010814727 0.954605296976109 0.8612871917935904 0.6374321796939242 0.27918495523992426 1.647661383783217e-05 0.9999888103426265 0.9999887470618776 0.9999887592479556 0.9999888360886398 0.9999889600918132 0.9999891025192909 0.9999892185229217 0.9999892314037587 0.9999890028188251 0.9999882518658827 0.9999863076425153 0.999981216662145 0.9999657638474482 0.9999050830918368 0.9995777463808659 0.9972176724250276 0.9772109607402731 0.8180090869095261 0.002690543413571323 5.719301626813037e-06 1.167665956004602e-08 5.6875904306778365e-05 0.8606421679794529 0.8683426554323675 0.8797404661034636 0.8943913393922388 0.9108797765189139 0.9276819757251012 0.9435073870861942 0.9574487029628289 0.969004834903919 0.978016628972059 0.9845279599239348 0.9885221653262232 0.98921572145494 0.9827117895697214 0.954807639755689 0.8660360378424516 0.6482284700535044 0.28945062919560227 1.585662132531209e-05 0.999952194024133 0.9999521460481209 0.999952663695724 0.99995369941719 0.9999551804344293 0.9999569958781054 0.999958988910798 0.9999609328320392 0.9999624794294719 0.9999630234068817 0.9999613038379209 0.9999540144289653 0.9999299438285675 0.9998391480466161 0.9993897388368409 0.9964415808110669 0.973561548206142 0.8052504458211098 0.002548691115313483 5.248063136750262e-06 9.298397727873362e-09 2.9288243321161774e-05 0.5878544466291651 0.6047826311782292 0.6373810242696938 0.6815460596085126 0.7320108142106373 0.7836658658958653 0.8323487489320464 0.875204065057199 0.9107162925701977 0.9384953308456322 0.95893042483662 0.9727166103335858 0.980016046116876 0.9781758066525933 0.9549105198304882 0.873256442244701 0.6642059009502094 0.3046922112442939 1.5384985567565632e-05 0.9998117530991222 0.9998123241570428 0.9998158257038255 0.999822045269077 0.9998306393682711 0.9998411440819259 0.9998529345853586 0.9998652337256632 0.9998770321783711 0.9998869193770321 0.9998925127460678 0.9998885205574682 0.999858829992498 0.9997371487323125 0.9991626976182258 0.9956644905540712 0.9703533176953669 0.7950150173211399 0.002433366491955406 4.86820494349667e-06 7.472017554320046e-09 3.1828883413519205e-07 0.011956856331225249 0.013292796221739523 0.07618997569358459 0.17590951979276767 0.29683291506451137 0.42521460981366044 0.5496596153104655 0.6618774234554939 0.7569233470831479 0.8328627969907323 0.8900820167783582 0.930389571173463 0.9558019694617196 0.9661203871444639 0.9523789309411329 0.8816491956394055 0.6849174800930485 0.325355372862316 1.5057716473748868e-05 0.9993128644893925 0.9993172006319276 0.9993339313323416 0.9993621209144976 0.9994003656963563 0.9994467592790489 0.9994988852588873 0.999553936083834 0.9996086849236391 0.9996593616763498 0.9997010196336213 0.9997251605256059 0.9997099905401498 0.9995738518845728 0.9988993984721221 0.9949748816510607 0.967972507575471 0.7882330032890523 0.0023469170203469494 4.5786536776324595e-06 7.044354349097174e-09 7.1930760385129355e-06 0.206151979429323 0.194963092591649 0.17502797844982468 0.14494641915596918 0.13573874781699452 0.17554498417769113 0.2621574382407797 0.3806604407623208 0.5119001188147192 0.6386449033387837 0.7487809321920019 0.8359276365002843 0.8982282107821491 0.9352952877113985 0.9411481293654744 0.8881903287483536 0.7091732781620185 0.3518107616806519 1.4867121160355937e-05 0.9976673983743795 0.9976877094963522 0.9977529871347657 0.9978597789944201 0.998002980968283 0.9981758223616987 0.9983699036659817 0.9985757025440422 0.9987827768588969 0.9989800956145072 0.999155746364445 0.999294531888249 0.9993673066172187 0.9992801150201712 0.9985825929522283 0.9944571782099945 0.9668000030202917 0.7858684835184644 0.002291981264955418 4.37826079351908e-06 6.851223736184412e-09 1.4197965429330279e-05 0.3266958814095728 0.3132837618810989 0.2971952710668103 0.27786671432635796 0.2535216509787523 0.2240528174420906 0.2137064547940996 0.24405394424087312 0.320064045099833 0.4314455374272751 0.5595618503990116 0.6848685671590092 0.7919079050138164 0.8704100301935349 0.9104703132446288 0.886800472208305 0.7343515281920161 0.3841848192371415 1.4801129980425909e-05 0.9926336377886634 0.9927088692671692 0.99292633303164 0.9932755690969042 0.9937411404595876 0.9943026052554136 0.9949348467695487 0.9956090522410034 0.9962939423201578 0.9969573759416687 0.9975671072782932 0.998090126815572 0.9984827499522863 0.9986403959379174 0.998110735730657 0.9941392495832082 0.9671342939477349 0.7888543595569135 0.002271264347489294 4.2662643147962636e-06 6.7963641190286336e-09 1.9373548786383584e-05 0.38287080670356266 0.3639396324831002 0.3464391363303903 0.3300317154843712 0.3137929187050011 0.29612801148406476 0.2713752198142107 0.2522466474837483 0.2592822699039405 0.30703728569528627 0.3967453208529047 0.5164209998280737 0.646084206083847 0.7639237361552651 0.8483143757908442 0.8679354472552102 0.7554452178632763 0.42196129901426 1.48420433924239e-05 0.9784369927622023 0.978668372592185 0.9792935868565245 0.98028641631361 0.9816094889333801 0.9832119093723419 0.9850303782399527 0.9869910114910437 0.9890115110649823 0.9910049260352941 0.9928840039684067 0.9945644641758424 0.9959604796494899 0.9969424826608705 0.9970794309597765 0.9938572947766479 0.9690648549875619 0.7980532836415242 0.002287820391129385 4.240811483660153e-06 6.841132843113974e-09 2.3024741597938645e-05 0.4111206069831375 0.38415105348429457 0.3622370375945617 0.3444484497704037 0.3297592347414366 0.31704114133725503 0.3036640255995467 0.28544750138702074 0.26958447895698356 0.27133176687248134 0.30662162326664005 0.38332491334247387 0.49630083710004813 0.6277052783500324 0.749711800765106 0.8209756056698473 0.7644331281698652 0.46340331170057536 1.4965226185092123e-05 0.9419942349770575 0.9425951671127331 0.9441320214651528 0.9465623591736204 0.9498132536833617 0.9537884755079354 0.958362102032414 0.9633815133383014 0.9686668258929412 0.9740171893748327 0.9792190924145194 0.9840565169212208 0.9883183572559475 0.9917766830333048 0.9939860515360958 0.9927904884725569 0.9722383783464995 0.8138709795521281 0.0023386335065506306 4.2873052144750416e-06 6.937920469927457e-09 2.5626170523603713e-05 0.42723932725325975 0.38975628995121514 0.3617960202558908 0.3408535927579213 0.3252151143685466 0.3135618715517379 0.30473226177319723 0.2949681565890733 0.28279811117275616 0.2725937118340177 0.2758237139761543 0.30749368339054717 0.37884446136438543 0.48983852449697746 0.62362226729802 0.7394690412300675 0.7509281676474605 0.5044412288509347 1.5137956159586094e-05 0.8587966808434314 0.8600718661777461 0.863220686924345 0.8681903280426225 0.8748986702818274 0.8832221214766586 0.8929900519441196 0.903977160757944 0.9158951380388537 0.9283895538128134 0.9410436254973411 0.953389560989437 0.9649254955549981 0.9751204294297605 0.9833111156081009 0.9875871196824763 0.9747868005091903 0.8370253053703103 0.002440423504467156 4.394597145806345e-06 7.053731940469758e-09 2.74944170618326e-05 0.43724697024273423 0.3859992043069703 0.35060554468282046 0.32563835234870686 0.3080266559778451 0.2959661525116183 0.2881795903960291 0.28262624522374064 0.2769360610793023 0.27042756924160516 0.26622678577694653 0.27342162746465626 0.3059581865984059 0.3772603076909148 0.4909985538143318 0.6262159333799175 0.7045369594065346 0.5386435421162113 1.532173452546518e-05 0.696349204648464 0.6984486740192374 0.7035097082305455 0.711520902499224 0.7224792017089312 0.7363434483690574 0.7530386890031889 0.7724205772151328 0.794258768265019 0.8182042455409636 0.8437554448805167 0.8702432942581203 0.8968027496517021 0.922415260835807 0.9457218693220304 0.964691088223446 0.9688605318517223 0.8614772341159327 0.002455755407866596 4.349644087708309e-06 1.0196906499419629e-08 2.8882322136071635e-05 0.443686370595505 0.3730506004391909 0.3290553492054319 0.2992292836216853 0.2789376295778784 0.265837286434876