# vtk DataFile Version 3.0
vtk output
ASCII
DATASET RECTILINEAR_GRID
DIMENSIONS 41 41 1
X_COORDINATES 41 double
0 1 2 3 4 5 6 7 8 9 10 11 12 13 14 15 16 17 18 19 20 21 22 23 24 25 26 27 28 29 30 31 32 33 34 35 36 37 38 39 40 
Y_COORDINATES 41 double
0 1 2 3 4 5 6 7 8 9 10 11 12 13 14 15 16 17 18 19 20 21 22 23 24 25 26 27 28 29 30 31 32 33 34 35 36 37 38 39 40 
Z_COORDINATES 1 double
0
POINT_DATA 1681
FIELD FieldData 1
Concentracao 1 1681 double
1.0 1.0 1.0 1.0 1.0 0.9999999999999999 0.9999999999999999 0.9999999999999998 0.9999999999999999 0.9999999999999997 0.9999999999999992 0.9999999999999987 0.9999999999999984 0.9999999999999982 0.999999999999998 0.9999999999999795 0.9999999999915732 0.9999999968620925 0.9999995682212259 0.99999916922755 0.9999987690392343 0.999998371692554 0.999998371615492 0.9999983715051589 0.9999983713128516 0.9999983710358572 0.9999983706541348 0.9999983701444388 0.9999983694695617 0.9999983685717706 0.9999983673528136 0.9999983647736232 0.9999982868015399 0.9999950555449874 0.9999177957121019 0.9988083242317228 0.9888627209188122 0.9325514557467148 0.7355851543181199 0.3435261510005287 1.4331065859158336e-05 1.0 1.0 1.0000000000000002 1.0000000000000002 1.0000000000000002 1.0000000000000002 0.9999999999999996 1.0 0.9999999999999992 0.9999999999999988 0.9999999999999982 0.9999999999999978 0.9999999999999976 0.9999999999999977 0.9999999999971314 0.999999990705488 0.9999939284895655 0.9959841390369011 0.009975488853820129 0.0002153020281810688 0.00019568704298244296 0.004231338845076886 0.999970008966372 0.9999786932400414 0.9999846388947357 0.9999877990149502 0.9999899163020344 0.9999914092701427 0.9999925346752687 0.9999934217339608 0.9999941479060118 0.9999947601111119 0.9999952104363208 0.9999922583315565 0.9999117316536936 0.9987621343561452 0.9885552842830267 0.9312932402394255 0.7327291132937054 0.34073784402613627 1.4206211688433849e-05 0.9999999999999998 1.0 1.0 1.0000000000000002 1.0000000000000002 1.0000000000000002 0.9999999999999998 0.9999999999999996 0.9999999999999996 0.9999999999999989 0.9999999999999987 0.9999999999999984 0.9999999999999983 0.9999999999999974 0.9999999999802939 0.9999999550778547 0.9999704403515444 0.9917315814014032 0.006363768406130874 2.0692476411591124e-05 1.0019921051833577e-07 0.0001948545076283844 0.9999240258648733 0.9999619255080763 0.9999722832392048 0.9999784157956081 0.9999823114051177 0.9999850903504787 0.9999871900850964 0.999988855757468 0.999990227236772 0.9999913908761374 0.9999923121171762 0.9999893573123897 0.9999011824774041 0.9986658233611737 0.9879160814586717 0.9287243787658858 0.7269967337527705 0.3352347175583537 1.3996661973524066e-05 0.9999999999999998 1.0 0.9999999999999999 0.9999999999999999 1.0 1.0 1.0 0.9999999999999998 0.9999999999999998 0.9999999999999991 0.9999999999999989 0.9999999999999986 0.9999999999999986 0.999999999999994 0.999999999923864 0.9999998636667651 0.999932560613243 0.9874992235052347 0.006210767109766008 1.9748581019806413e-05 6.130690576269452e-08 0.00019028425422877102 0.9998483552852027 0.9999342399841803 0.9999574728276119 0.9999680507589961 0.9999744253922674 0.9999787477744825 0.9999819367151389 0.999984426028938 0.9999864557454405 0.9999881674000901 0.999989536879881 0.9999862251064399 0.9998847254652704 0.9985083055006773 0.9868963514601846 0.9247363095693908 0.7183296609601312 0.3271183106430015 1.3704410146904678e-05 0.9999999999999996 1.0 1.0 0.9999999999999998 1.0 0.9999999999999998 0.9999999999999996 0.9999999999999997 0.9999999999999994 0.9999999999999994 0.9999999999999993 0.9999999999999993 0.9999999999999983 0.9999999999999815 0.9999999997753285 0.9999996841790572 0.9998797011071773 0.983004226458254 0.005897469952405191 1.8871292606304305e-05 5.9327487829244176e-08 0.00018787029630467665 0.9997455478886886 0.9998991030887412 0.9999389880606655 0.9999562551600797 0.9999658897614553 0.9999721495016559 0.9999766190853117 0.9999800312015058 0.999982768557309 0.9999850497416262 0.9999868541366754 0.9999826606845137 0.9998598876882082 0.9982713251390157 0.9854212791129694 0.9191797089496203 0.7066693405602854 0.31654341956973986 1.3332094774289005e-05 0.9999999999999992 0.9999999999999999 1.0 0.9999999999999999 0.9999999999999997 0.9999999999999996 0.9999999999999997 0.9999999999999988 0.9999999999999986 0.9999999999999979 0.9999999999999974 0.9999999999999971 0.9999999999999959 0.9999999999999426 0.999999999435145 0.99999936784619 0.9998061940843334 0.9781460287440127 0.005679414613706218 1.7880881323347853e-05 5.64908978633273e-08 0.00018491778696554977 0.9996144226971309 0.999856161637855 0.9999174220130028 0.9999429631607847 0.9999566697501374 0.9999652493858865 0.9999712026147303 0.9999756457572412 0.9999791484298886 0.9999820269711138 0.9999842419294463 0.9999783119398571 0.9998225411380073 0.997926980897385 0.9833848492995519 0.9118645436631299 0.6919615753962804 0.3037201224586005 1.2883311132920257e-05 0.9999999999999991 0.9999999999999998 0.9999999999999997 0.9999999999999997 0.9999999999999997 0.9999999999999992 0.9999999999999994 0.999999999999999 0.9999999999999988 0.9999999999999982 0.9999999999999979 0.9999999999999979 0.9999999999999969 0.9999999999998421 0.9999999987090189 0.9999988319417282 0.999705424321262 0.9727728848885234 0.005443524914956293 1.677171602383211e-05 5.287189479641932e-08 0.000181450459618573 0.9994561958972514 0.9998066284401405 0.9998931952651848 0.9999284548958961 0.9999468726012224 0.9999581037615255 0.9999657156232964 0.9999712852092631 0.999975604141337 0.9999791033825928 0.9999816687329356 0.999972531840243 0.999765864956855 0.9974336617700357 0.9806456663304082 0.9025629319628694 0.6741770311310306 0.28890979361094016 1.236278173582314e-05 0.999999999999999 1.0 0.9999999999999997 0.9999999999999998 0.9999999999999994 0.9999999999999992 0.9999999999999989 0.9999999999999992 0.9999999999999982 0.9999999999999979 0.9999999999999973 0.999999999999997 0.9999999999999967 0.9999999999995545 0.9999999972014949 0.9999979425989078 0.9995676736437503 0.9667618117637204 0.0051989967754869125 1.5584243257457948e-05 4.889284015157883e-08 0.00017750631241328428 0.9992721900095515 0.9997514033153304 0.9998669104373351 0.9999130418671863 0.9999366771299595 0.999950810974902 0.9999602153577306 0.9999669831707148 0.9999721555978198 0.9999762879296237 0.999979063537844 0.9999641009873236 0.9996786076740457 0.9967304208134807 0.9770178236674548 0.8910121952804849 0.6533253229385004 0.27242241852160415 1.1776571025692584e-05 0.9999999999999992 0.9999999999999998 0.9999999999999999 0.9999999999999997 0.9999999999999994 0.9999999999999993 0.9999999999999986 0.9999999999999984 0.9999999999999979 0.9999999999999973 0.9999999999999967 0.9999999999999959 0.9999999999999959 0.999999999998296 0.9999999940269283 0.9999964723431747 0.9993791654522961 0.9599570663607516 0.004943164712729171 1.435226378908828e-05 4.473399800741489e-08 0.00017312247576181612 0.9990640743263414 0.9996914973343837 0.9998391095386935 0.999897042152242 0.9999262646142543 0.9999434774350218 0.9999547640739597 0.9999627762038032 0.9999688234051107 0.9999735838433647 0.9999762539269791 0.9999506837707186 0.9995422698868353 0.9957295827962717 0.9722670173991138 0.8769396711262814 0.6294793722077744 0.2546108635015361 1.113232379573632e-05 0.9999999999999988 0.9999999999999998 0.9999999999999994 0.999999999999999 0.9999999999999993 0.9999999999999989 0.999999999999998 0.9999999999999982 0.9999999999999976 0.9999999999999969 0.9999999999999962 0.9999999999999952 0.9999999999999831 0.9999999999858378 0.999999985770255 0.9999939838198807 0.9991187805816673 0.9521920798736968 0.004677576261925521 1.3102763659000935e-05 4.0539776073105236e-08 0.00016833541313055224 0.9988335965168341 0.9996277887991294 0.99981026386849 0.9998807211031899 0.9999157902754221 0.9999361932635382 0.9999494141474418 0.999958693471784 0.9999656219106219 0.9999709729675248 0.999972820503159 0.9999277675118963 0.9993265916858444 0.9943074040060441 0.9661088155632344 0.8600731921282717 0.6027911171805203 0.23585861554425167 1.0439271048429088e-05 0.9999999999999981 0.9999999999999994 0.9999999999999994 0.9999999999999992 0.9999999999999992 0.9999999999999987 0.9999999999999977 0.9999999999999974 0.9999999999999972 0.9999999999999976 0.9999999999999961 0.9999999999999953 0.9999999999997938 0.999999999889625 0.99999995060613 0.9999879962335592 0.9987424023563671 0.9432643412797894 0.0044040200900715065 1.1862126541783416e-05 3.643462636620879e-08 0.0001631794736643937 0.9985825083934973 0.9995609747840193 0.9997807171583102 0.9998642674287165 0.9999053612462386 0.999929019222165 0.9999441980213337 0.9999547506564777 0.9999625517625842 0.9999683730797627 0.9999677418543096 0.9998866310550112 0.9989827728809915 0.9922934826758782 0.9582095701518989 0.8401757141353264 0.5735110439506077 0.2165689111921748 9.708214533944945e-06 0.9999999999999976 0.9999999999999989 0.9999999999999989 0.9999999999999988 0.9999999999999983 0.9999999999999981 0.9999999999999978 0.9999999999999971 0.9999999999999968 0.999999999999997 0.9999999999999962 0.999999999999984 0.9999999999971865 0.9999999992609621 0.999999829750972 0.9999747197385914 0.998086398412717 0.9315628984585824 0.00412959231727212 1.070538847479342e-05 3.2680517760680216e-08 0.00015768564838165107 0.9983124657660797 0.9994914809661312 0.9997506555364005 0.9998477775752472 0.9998950270892756 0.9999219786029484 0.999939123431087 0.9999509435595001 0.9999595795672652 0.9999655015404851 0.9999585378574476 0.9998105836905028 0.9984336222312913 0.9894608438678674 0.9481996934154928 0.817079929359606 0.5419995926818963 0.19715052464603824 8.951305837671968e-06 0.9999999999999968 0.9999999999999981 0.9999999999999987 0.9999999999999983 0.9999999999999979 0.9999999999999979 0.9999999999999983 0.9999999999999968 0.9999999999999968 0.9999999999999956 0.9999999999999936 0.9999999999997261 0.9999999999684958 0.9999999956953067 0.9999994437085592 0.9999473734414521 0.9971018370352718 0.91787809555185 0.0038519697618001098 9.586979643941795e-06 2.9097259775121047e-08 0.00015188066889236437 0.9980249534146914 0.999419386813601 0.9997200836914485 0.9998312426033933 0.9998847735665768 0.9999150522166388 0.9999341646942915 0.9999472271129675 0.9999565511857117 0.9999614392251212 0.9999392895984591 0.9996684100171167 0.9975610105451775 0.9855194517691079 0.9356989102993479 0.7907274565813213 0.5087269532079386 0.1779983785344687 8.181658453910394e-06 0.999999999999996 0.999999999999998 0.9999999999999986 0.9999999999999977 0.9999999999999972 0.999999999999997 0.999999999999997 0.9999999999999967 0.999999999999996 0.9999999999999905 0.99999999999988 0.999999999995289 0.9999999997093646 0.9999999778352149 0.999998286759862 0.9998928760470697 0.9956543996066608 0.9019593511823841 0.003573335408802136 8.519211194863494e-06 2.5724533928129986e-08 0.00014578619206373893 0.9977212312309017 0.9993443439367682 0.9996887855056344 0.9998145277970188 0.999874502120977 0.9999081522085009 0.9999292168954145 0.9999434025316315 0.9999528343106994 0.9999533515634041 0.9998963944990706 0.9994038619352654 0.9961912851157437 0.9801184812407541 0.9203535667558586 0.7612094935200159 0.47426650462200015 0.15948002453996726 7.412884250933813e-06 0.9999999999999958 0.9999999999999971 0.9999999999999979 0.9999999999999971 0.9999999999999961 0.9999999999999961 0.9999999999999943 0.9999999999999899 0.999999999999968 0.9999999999997881 0.9999999999972572 0.9999999999365966 0.9999999977566607 0.9999998980217712 0.9999950261878362 0.9997874916016166 0.9935595988929571 0.8835576391609972 0.0032965497173410513 7.513915078432293e-06 2.2588365558856964e-08 0.00013941818922338093 0.9974022197252926 0.9992654467059277 0.9996562389017895 0.999797293692059 0.9998639351212381 0.9999009810829759 0.9999238473577876 0.9999386036445017 0.9999460661986644 0.9999331516841993 0.9998003200783043 0.9989205649721286 0.9940827412681336 0.9728624049661281 0.9018881662561231 0.7287981715265329 0.43927033789106745 0.1419169218756683 6.658450201091999e-06 0.9999999999999871 0.9999999999999873 0.9999999999999857 0.9999999999999815 0.9999999999999725 0.9999999999999531 0.9999999999999047 0.999999999999747 0.9999999999990704 0.9999999999948592 0.9999999999540973 0.9999999993314158 0.9999999853408609 0.9999995778224381 0.9999863769558172 0.999589974781523 0.9905763466154118 0.862451836877737 0.0030236698036312983 6.57755282963288e-06 1.9700678141153827e-08 0.0001327860645704217 0.9970682126610318 0.9991808521239071 0.999621244181908 0.9997785871573756 0.9998521078766849 0.9998923300220758 0.9999162152913037 0.9999294102129125 0.9999284597782819 0.9998799076278064 0.9995914392128332 0.9980634270968421 0.9909203199654991 0.9633452608604661 0.8801642527287737 0.6939601218362915 0.4044384376900105 0.12557350381324223 5.931019772509689e-06 0.9999999999996881 0.9999999999996627 0.9999999999996011 0.9999999999994781 0.9999999999992323 0.9999999999987087 0.9999999999974378 0.9999999999937591 0.9999999999802819 0.9999999999134112 0.9999999994354207 0.9999999943821961 0.9999999181201238 0.9999984203346476 0.999964797924041 0.9992318249741114 0.9864027917834038 0.8384698774157942 0.0027571338945210242 5.716118934792419e-06 1.7066131211392488e-08 0.000125891823275169 0.9967174983951154 0.9990862494890892 0.9995803133396426 0.9997550405797726 0.9998352179045769 0.9998773264721073 0.9998992624744866 0.9999041254136605 0.9998775867470451 0.9997448885030601 0.9991588939206533 0.9966005587862888 0.9863251344983052 0.9512033822338527 0.855237228963497 0.657355959761394 0.3704819416410201 0.11064849899560454 5.241833667362723e-06 0.9999999999929069 0.999999999992369 0.9999999999910864 0.9999999999885956 0.9999999999838113 0.9999999999740771 0.9999999999520679 0.9999999998943238 0.9999999997098113 0.9999999989513336 0.9999999947215148 0.9999999616943934 0.9999996055873035 0.9999946394222743 0.9999142063405315 0.9986050272318672 0.9806784278789413 0.81151754806924 0.002499325827998495 4.932285673223221e-06 1.4681002765775818e-08 0.00011872900432117835 0.9963409211818695 0.9989691105753711 0.9995215589074105 0.9997142096749109 0.9997990692018277 0.9998384761443102 0.9998495666288367 0.9998282130512374 0.9997367895814842 0.999426187683897 0.9983140877763088 0.9942124990571506 0.9798839853014151 0.936181987761946 0.82739810242019 0.6198076344233608 0.3380768789297497 0.09727393118403402 4.600165483107733e-06 0.9999999998839613 0.9999999998759633 0.9999999998572376 0.9999999998216835 0.9999999997557555 0.9999999996279688 0.9999999993575632 0.9999999987089079 0.9999999968711533 0.9999999904330159 0.9999999612331884 0.999999784066983 0.9999983469535436 0.999983451344908 0.9998028560203229 0.9975486256653894 0.9729970918807741 0.7816045632378575 0.0022520419607990204 4.226777109673626e-06 1.2534055207128471e-08 0.00011128105281980244 0.9959037421996002 0.9987897594688386 0.999404975935039 0.9996137879959723 0.999696735314846 0.9997211181718071 0.9996997240735634 0.9996126784040082 0.9993793359636213 0.9987317215127626 0.9967635598070989 0.9904963525169908 0.9711994340207952 0.9182022600682902 0.7971885301010073 0.5822530685129925 0.307829821828557 0.08551685413004094 4.012983783030785e-06 0.9999999985776964 0.9999999984895399 0.9999999982870483 0.9999999979116996 0.9999999972389426 0.9999999959943296 0.9999999935192537 0.999999988048081 0.9999999741142206 0.9999999315991344 0.9999997697191901 0.9999989754041924 0.9999939174935685 0.9999533766003678 0.9995729072724651 0.9958376113232368 0.962934043395606 0.7488735563010097 0.002017474943242806 3.5991768179251873e-06 1.0612746143387632e-08 0.0001035196543335181 0.9952934192377656 0.9984278194347614 0.9991078804965572 0.999326138495474 0.9993920361120453 0.9993756489032797 0.9992792986743161 0.9990544505335197 0.9985512102781944 0.9973324773882309 0.9940888307364315 0.9849897616493855 0.9599535035996477 0.8974143455516171 0.7653853659433605 0.5456798622745324 0.28024785110587647 0.07538781145280259 3.484771209848368e-06 0.9999999864072092 0.9999999856590926 0.999999983973862 0.999999980926494 0.9999999756436395 0.9999999662925891 0.9999999487462663 0.9999999127431236 0.9999998293908113 0.9999996039115409 0.9999988649230345 0.9999958385415167 0.9999801714180628 0.9998796933447731 0.9991275239060533 0.9931794139904286 0.950089001780555 0.7136179682784178 0.0017971777624903166 3.0465043550937007e-06 8.899565502080845e-09 9.540252956999555e-05 0.9941899963582504 0.9975508790161076 0.9982940689976904 0.9985098727713119 0.9985351188112296 0.9984387243053781 0.9982038312055821 0.9977368490999217 0.9967897983153208 0.9947109646706846 0.9897386787844228 0.9772113120314048 0.9459677358580205 0.874215730193049 0.7329476151672062 0.5110596223481094 0.25572626276939775 0.06685378614749433 3.0175805404508407e-06 0.9999998953564074 0.9999998902952634 0.99999987917804 0.9999998595675083 0.9999998266542667 0.9999997707736075 0.9999996714130752 0.9999994809440743 0.9999990759330929 0.999998090424032 0.9999952536317568 0.9999853067200553 0.9999422168190709 0.999714549540966 0.998318229585412 0.9892241136346696 0.9341440936559078 0.6762958521004924 0.0015926219392625707 2.565361131885855e-06 7.377987110600571e-09 8.68721928677437e-05 0.9917854616061215 0.9953333275784952 0.9961397269960726 0.9963494585455068 0.996321476072111 0.9961169707171634 0.9956884026252827 0.9948790819797892 0.9933171407484829 0.9901069066105436 0.983030833211956 0.9667031274288045 0.9292402604898348 0.8492308317060068 0.7009363673839794 0.4792854708427582 0.23454582267502966 0.059852838225503434 2.6112834716699948e-06 0.9999993333134121 0.9999993053765627 0.9999992458441215 0.9999991434609861 0.9999989768434535 0.9999987048836971 0.9999982446274057 0.9999974149762745 0.9999957799920142 0.9999921549522186 0.9999828351038058 0.9999542635714861 0.9998481624001289 0.9993746132402734 0.9969377442095709 0.983594111859233 0.9149281672439247 0.6375221395744287 0.0014050482444694717 2.1513309222166793e-06 6.031449801099303e-09 7.785683482421327e-05 0.9862520493188451 0.9899302760262582 0.9908301241291024 0.9910904616644992 0.9910782915960459 0.9908338542304761 0.9902621972969096 0.9891239823845996 0.9869036230597371 0.9824551797963684 0.9731491514973375 0.9530500131715037 0.9099344168904738 0.8232365979819708 0.6704208041936901 0.4511283444517319 0.21688956046109448 0.054309673645197044 2.2639369271344867e-06 0.9999964053689495 0.9999962770423702 0.9999960135015895 0.99999557228187 0.9999948751858067 0.9999937780286583 0.9999920024933423 0.9999889733781706 0.999983391606474 0.9999719850564586 0.9999454043988725 0.9998728698003166 0.9996372017307714 0.9987292366330152 0.9947250393972729 0.9759353042843852 0.8924836776308653 0.5980541189978782 0.0012352120109909797 1.798999609889055e-06 4.844969637486015e-09 6.82775473333242e-05 0.9738689664632956 0.9776226804279581 0.9787554892593224 0.9793131350880825 0.9796356386955412 0.9797112563114458 0.9793662194447194 0.9782501732175988 0.9756865570966272 0.9702911576648993 0.9591037235426756 0.9358470285169342 0.8883089500892506 0.797050788385553 0.6423775879741169 0.42720663292277905 0.20286469072591756 0.05015228637844051 1.972275056995417e-06 0.9999832882138867 0.9999827898285357 0.9999818149902144 0.9999802278347697 0.9999777916949347 0.9999740817710596 0.9999683111544543 0.9999589262947516 0.9999426068786561 0.9999115240331088 0.9998449708514915 0.9996807131218474 0.9992053718363583 0.9975941662116632 0.9913881363099094 0.9659856827623661 0.8671163648126315 0.5587557894029492 0.0010834759066238838 1.5025448837452356e-06 3.805935877720845e-09 5.806836879122653e-05 0.9478242123186151 0.9516589910250325 0.9534314390252372 0.954966927708109 0.956500110619186 0.9578946780803863 0.9588311825994098 0.9587934429541733 0.9569141804935792 0.9515863660881271 0.9396129232556508 0.9145813231252251 0.8645734682734035 0.7713845399354566 0.6175929564325401 0.40797366675112756 0.19253469654962332 0.047327789827693825 1.7322170686700585e-06 0.9999319460055655 0.9999302980084489 0.9999272662941063 0.9999224915795448 0.9999153627419144 0.9999048163101791 0.999888948364708 0.9998641345824126 0.9998229964825344 0.9997490728780499 0.9996016320373271 0.9992674962969486 0.9983920582365197 0.9957363994562275 0.9866468013997316 0.9536510986201191 0.839425208493496 0.5205583171495494 0.0009499873926006283 1.2561975563706326e-06 2.9062139168571795e-09 4.721685012679564e-05 0.8970075397642394 0.9011009114125365 0.9044262650546001 0.908401941077268 0.913005504792519 0.9178341454806311 0.922290417204137 0.92558373505591 0.9265876453229206 0.9234659106665809 0.9128625923921125 0.8884041164342164 0.8386664578170765 0.7466537871256378 0.5965634093358303 0.3937073827359591 0.1859466151055079 0.04581704667016512 1.5393442740682329e-06 0.9997540559675611 0.9997493826169037 0.9997415122033819 0.999729624189531 0.99971236304347 0.9996874210334535 0.9996507791903211 0.9995950363849613 0.9995057157906718 0.9993520036099113 0.9990619596685506 0.9984487587775239 0.9969707354734252 0.9928928694573994 0.9802891817506277 0.9390729075874852 0.810298943105412 0.484414678276215 0.0008344290313222428 1.0540000905150607e-06 2.1416688185400103e-09 3.5839471822892266e-05 0.80577549260159 0.8106214904489695 0.8171420196898049 0.8260971604126662 0.836984595783423 0.8489042536611138 0.860765918895377 0.8713171747551395 0.8790377000789323 0.8818004760265666 0.8761183157288759 0.8557704059842877 0.8099475232811781 0.7227615401246723 0.5793827099087968 0.3844951646245073 0.18315454810259277 0.04564904496392714 1.3893170525793547e-06 0.9992025138124198 0.9991912187626045 0.9991746374726393 0.9991511111426947 0.9991180079635283 0.9990708822135785 0.9990021930300415 0.9988983757209919 0.9987339116797128 0.9984568160346367 0.9979516815573501 0.9969361376221859 0.9946443923085498 0.9887993890262263 0.972229995756154 0.9226708678537071 0.7808828999701879 0.4512620037750866 0.0007363089040527958 8.903679843989859e-07 1.5137543794428241e-09 2.4306309983404848e-05 0.6569442477357192 0.6633969650383438 0.6753667665501946 0.6927340612860753 0.7142826488953464 0.73836395961254 0.7631317814949127 0.7866218361893758 0.8067072535999688 0.8208138886535432 0.8252549926339865 0.8139735790043572 0.776801252126205 0.6988176905697291 0.5655943955549321 0.38018086650453975 0.18422237548476947 0.046914144978135994 1.2781997934249796e-06 0.9976589820274884 0.9976360219539185 0.9976101713511026 0.9975783993329544 0.9975358945337266 0.9974746776747507 0.9973817019692163 0.9972341319305041 0.9969905772227549 0.9965705589817591 0.9958039742695413 0.9942963577348015 0.991039169950792 0.9832175475772796 0.9625502440908905 0.9051441942897359 0.7525186471942418 0.4220000078248913 0.0006549900891765235 7.602319620840913e-07 1.028906250795002e-09 1.3420905696396494e-05 0.4423940236949444 0.45127084496125364 0.4704497349179962 0.49898592185370366 0.5349686710957134 0.5759597595769477 0.6192326569724074 0.6619157812254456 0.7010188221999081 0.7332592759576488 0.7545161620010699 0.7587197850233546 0.7362026889756781 0.6727949725389475 0.5539685558135933 0.3802584233728046 0.18919796723501614 0.04977467146466018 1.2026615462450824e-06 0.9937342222376696 0.9936967592672129 0.9936790579782705 0.9936754844141517 0.9936774546599695 0.9936709601232976 0.9936337816592232 0.993529105536536 0.9932934620309491 0.9928097159776316 0.9918437424817105 0.989881296852883 0.9856762350394708 0.9759348740609257 0.9514936780673477 0.8874237276671633 0.7266680096691186 0.39749022705832626 0.0005897168227933419 6.590667542698686e-07 6.957404824091224e-10 4.608515534233893e-06 0.18782795780902198 0.19840998746394603 0.22292993783764578 0.2604132821113558 0.3090606547429498 0.36634435007556976 0.4291258073370257 0.4937920941830501 0.5563897493920529 0.6126003026464516 0.6574132871881633 0.6842491830679105 0.6834648671051432 0.6411787483914118 0.5421969763990664 0.38366479964472117 0.19803505970516622 0.0544699363469991 1.1600372285196175e-06 0.9846267966427897 0.9845854808368267 0.9846433637036622 0.9847902886202982 0.9850099179113089 0.9852777040691586 0.9855549074313861 0.9857823166370735 0.9858638798126163 0.9856351050193797 0.9847885983683787 0.9826902266170747 0.9778838346931239 0.9667029999829673 0.9393949983032671 0.8705663928910479 0.7048299886906504 0.37858289076866797 0.0005399034878530489 5.830396674940818e-07 5.189104459573348e-10 1.0680505227195339e-08 0.0007762060694601808 0.001974190185492058 0.019128877409373253 0.05004729534709421 0.09479868635729187 0.15278103491910544 0.22211005938114797 0.29952707456105937 0.38057337815681486 0.45978046304838466 0.5306633990114992 0.5852379387889995 0.6128540424644173 0.5989088046284382 0.5265829170830303 0.3884769365226223 0.21043780613250507 0.061306024711972926 1.1482115333116625e-06 0.9653023596094225 0.9653017897431099 0.9656032524182729 0.9661874003535136 0.9670250581551806 0.9680717012270826 0.9692599890480538 0.9704930246369279 0.9716250046956275 0.9724257580575977 0.9725003380155892 0.9710948067416422 0.9665825790015685 0.9550588028307888 0.9265058117008066 0.8555820705989625 0.6884435589894939 0.36617240872233525 0.0005051918130526304 5.293078161240111e-07 4.639247837029593e-10 4.546242273804452e-07 0.028552718618848116 0.025475211008966374 0.02011413639538139 0.013179208802245683 0.01538877067871235 0.035443699312175524 0.07547533411158398 0.1348383083285928 0.21013326748197234 0.2955019354856347 0.38293611806520034 0.46224407240169346 0.5203905181620347 0.5403778687893841 0.5020476657767351 0.39156537791337376 0.22559128044364446 0.07061221598682357 1.1652771739508317e-06 0.9278434283551414 0.9279855698809862 0.9288443362344734 0.9303865792739231 0.9325630527041544 0.9352999006127599 0.9384870073105512 0.9419709166212352 0.9455312787393869 0.9488448599679514 0.951404749903369 0.9523255239503586 0.9498416455408272 0.9399404909221895 0.9126567650597018 0.8431559612629264 0.678765726820192 0.3612797378599502 0.00048565168980608327 4.958090883401427e-07 4.3954432696708885e-10 1.4237447079570912e-06 0.07696862795755499 0.07107820478151979 0.06264584342264011 0.05211303634325799 0.03987794328415341 0.02995049004475503 0.03166133682377317 0.05197389519781475 0.09461572943941564 0.15904062381534712 0.2401522430337569 0.32829673287517525 0.40901514577270265 0.46233450688023864 0.4631038952177945 0.3884706250539239 0.24181412367286442 0.08265090898058723 1.2089519913689955e-06 0.8618004107887641 0.8622521535121502 0.8641086851368588 0.8673251232160942 0.8718350132494905 0.8775370000863103 0.8842788862594785 0.8918431928341944 0.8999214753046342 0.9080763097261267 0.9156562364443074 0.9216188654327756 0.9240609322761973 0.9189496388452153 0.8966322110554764 0.8331762088679284 0.6766481054946382 0.36512090201345204 0.00048184183507103066 4.813111426965217e-07 4.4055462109413496e-10 2.642264868968402e-06 0.1256557642383287 0.11636434561637383 0.10553634610088078 0.09337796628374669 0.07993730770764096 0.06517665093879488 0.05076175498719011 0.04336806270179648 0.05096375725413605 0.08005102576886415 0.13324487404674196 0.20738638639034299 0.2920139401921796 0.36787339294689547 0.40621763093214885 0.3739395141321082 0.2562252261765081 0.09743171395888277 1.2757196121055896e-06 0.7568603672036818 0.7577971727046635 0.7610471368803781 0.7665689569065144 0.7743106580998315 0.7841793047953217 0.7960227525715284 0.8096067550247339 0.8245764644132929 0.8404063616730342 0.8563140715842492 0.8710893064084604 0.8826762875637119 0.8870439435030503 0.8750044254909749 0.8238461141278454 0.6820028603994441 0.3792042811960153 0.0004949551727867837 4.851733706998214e-07 4.601554796981116e-10 3.839984605146894e-06 0.1647793981719403 0.1510787047643832 0.13761787713095636 0.1242585491579533 0.1107667391723386 0.09685806510822172 0.08188463808699459 0.06643735010826028 0.05554175753917065 0.05650728375116545 0.07691003785024723 0.12162046104906452 0.1892705069983157 0.26825588377117027 0.33283567888948545 0.34346163483533987 0.2646476668749211 0.11445828027410525 1.3599126514531295e-06 0.6088967696164393 0.6103847099004465 0.6150259607360685 0.6228434827259526 0.6338485522680943 0.648048325896654 0.6654010270155389 0.6857921115663713 0.7089719396636668 0.7344905144866006 0.7615905941444198 0.7890236309080029 0.8146667189892642 0.8345422441385875 0.8400112704235803 0.809817391850331 0.6927371352862229 0.4047152515841767 0.0005247426126353777 5.051840213232352e-07 4.904527034310573e-10 4.882122294399843e-06 0.19358948100430948 0.1741047177884917 0.15738936054343067 0.14252728573284057 0.1289115565023088 0.11603021427338421 0.10340354767685421 0.08944417888875943 0.07508066560532466 0.06393585106999997 0.06229881140632406 0.07794891873174115 0.11717631197472474 0.17966592867991038 0.2510529146075599 0.29558262298936266 0.26211200076164487 0.13224126250492485 1.4527651523025105e-06 0.4283619411946914 0.4301773032053077 0.43548242732917136 0.44437564640062877 0.4570113318618148 0.4735799370948967 0.4942883868792368 0.5193279838499437 0.5488146544576838 0.5827045504248373 0.6206643713564602 0.6618595208865945 0.7045602009322454 0.7452522650193418 0.776278674474712 0.7784522082285735 0.7011309266046154 0.4434036117920272 0.0005757877179808897 5.396305139985253e-07 5.257515161923654e-10 5.727911018944846e-06 0.21411431411129028 0.18700270237898753 0.16623416697241356 0.1494905494762644 0.13541462075261548 0.12322384976955582 0.11230357597335583 0.10143203893574561 0.08970240761971106 0.07776378696081095 0.06821641377440937 0.06636902928150583 0.07984676268497613 0.11580481357231216 0.17396403360122642 0.23399526973187987 0.24402776082661815 0.1483656041177918 1.5429011019971682e-06 0.2452109736938507 0.24685031159696658 0.2514353612520076 0.259125913614156 0.2701972472051732 0.28501231712374253 0.3040432787000718 0.3278504757111064 0.3570702208037187 0.3923598850462477 0.4342875365006053 0.4831525646421739 0.5385834547716563 0.5988537516701724 0.6585495533810483 0.7032757131600507 0.6875054625366753 0.4841990264151243 0.0006052768874625144 5.526224118944947e-07 9