# vtk DataFile Version 3.0
vtk output
ASCII
DATASET RECTILINEAR_GRID
DIMENSIONS 41 41 1
X_COORDINATES 41 double
0 1 2 3 4 5 6 7 8 9 10 11 12 13 14 15 16 17 18 19 20 21 22 23 24 25 26 27 28 29 30 31 32 33 34 35 36 37 38 39 40 
Y_COORDINATES 41 double
0 1 2 3 4 5 6 7 8 9 10 11 12 13 14 15 16 17 18 19 20 21 22 23 24 25 26 27 28 29 30 31 32 33 34 35 36 37 38 39 40 
Z_COORDINATES 1 double
0
POINT_DATA 1681
FIELD FieldData 1
Concentracao 1 1681 double
1.0 1.0 1.0 1.0 1.0 0.9999999999999998 0.9999999999999998 1.0 1.0 1.0 0.9999999999999998 0.9999999999999996 0.9999999999999994 0.9999999999999993 0.9999999999999992 0.9999999999999991 0.9999999999999991 0.9999999999999991 0.9999999999999989 0.9999999999999984 0.9999999999999603 0.999999999998493 0.9999999999681444 0.999999999596855 0.9999999966148283 0.9999999792547327 0.9999998995821364 0.9999995922790141 0.9999985499376529 0.9999953473555154 0.9999862382717835 0.999961770439457 0.9998982589834725 0.9997341985938838 0.9992965546386912 0.9980406887274812 0.9939979359869225 0.9791187207474664 0.9182725005462021 0.6754126805050328 2.4205737196831818e-05 1.0 0.9999999999999998 1.0 1.0 1.0 0.9999999999999997 0.9999999999999996 0.9999999999999989 0.9999999999999989 0.9999999999999987 0.9999999999999982 0.9999999999999977 0.9999999999999976 0.9999999999999976 0.9999999999999973 0.9999999999999971 0.9999999999999971 0.9999999999999973 0.9999999999999969 0.9999999999999961 0.9999999999999523 0.99999999999822 0.9999999999615535 0.9999999995067264 0.9999999928396618 0.9999965197131585 0.9999864181412754 0.9999758167849364 0.9999693890415822 0.9999656153125005 0.9999555228688625 0.9999293475134341 0.9998634510339159 0.9996981039895548 0.9992684028123824 0.9980450939652168 0.9941240515267925 0.9795003928689888 0.9190787693953929 0.6762385071689109 2.423098347038661e-05 1.0000000000000002 1.0 1.0 0.9999999999999999 0.9999999999999997 0.9999999999999996 0.9999999999999989 0.9999999999999987 0.9999999999999982 0.999999999999998 0.9999999999999976 0.9999999999999973 0.9999999999999968 0.9999999999999964 0.9999999999999958 0.9999999999999958 0.9999999999999952 0.9999999999999947 0.9999999999999948 0.999999999999994 0.9999999999999328 0.9999999999973185 0.9999999999368733 0.999999999134768 0.9999994165226769 0.9996934313706529 0.9991847923350767 0.9987706771427163 0.9985964374324989 0.9985887086399147 0.9985855907594334 0.9985822273317767 0.9985678244094479 0.9985059428435383 0.9982634958201874 0.9973594389644095 0.9938859631335867 0.9800117063983332 0.9201826662308593 0.6767235372042988 2.4253393979897222e-05 1.0 1.0 1.0000000000000002 0.9999999999999998 0.9999999999999998 0.9999999999968454 0.999999999990258 0.9999999999794983 0.9999999999641868 0.9999999999441718 0.9999999999197319 0.9999999998918574 0.9999999998627814 0.9999999998375955 0.9999999998254896 0.9999999998359658 0.9999999998581482 0.9999999998851132 0.9999999999058834 0.9999999999209787 0.9999999999307394 0.9999999999305744 0.9999999997777069 0.9999999970374303 0.9999711390588302 0.9905130909990503 0.9804644691028592 0.976178582936485 0.9744764230492322 0.9744545562312016 0.9746619490851185 0.9752030582372481 0.9762679331174172 0.9783277993074188 0.9815735306774916 0.9858479706918083 0.9870880286670679 0.9771730271612502 0.9193731886749783 0.674432256906603 2.424653714379391e-05 1.0 1.0 0.9999999999999999 0.9999999999999999 0.9999999999942587 0.999997934980269 0.9999960178980187 0.9999940934317323 0.9999921101312074 0.999990082316936 0.9999880510763737 0.9999860879194341 0.999984350903874 0.9999829914981088 0.9999836534880885 0.9999864912416531 0.9999920010142385 0.9999949109108932 0.9999966974045177 0.999997733351293 0.9999983470474821 0.9999986984555301 0.9999988718705822 0.9999987957094406 0.9996070666757519 0.8391446804641666 0.8040978647075528 0.7892554736269616 0.7844449220005066 0.7843920545325459 0.7855786344182335 0.7885173072033427 0.7949064951918993 0.8055827980563791 0.8378203118883522 0.8714590265996502 0.9326165353108108 0.9535747378919334 0.9095950060343907 0.6662174695712451 2.417655859761718e-05 1.0000000000000002 0.9999999999999998 0.9999999999999997 0.9999999999974849 0.9999982244125242 0.0016560849471116746 0.001264247851543218 0.0012030738898032882 0.0011356677867031318 0.0010741773572751027 0.0010262068819729105 0.000994764974868209 0.0010055820475522257 0.0009870710933296833 0.0018295432004793175 0.9999624669361149 0.9999761062423101 0.9999854296252431 0.9999902830665381 0.9999931829509134 0.9999949349861156 0.9999959893268253 0.9999965199920794 0.9999963532270553 0.9975755408823362 0.0008239935098659616 9.143681831572975e-05 9.718271723479325e-05 0.000147543692643549 0.00017995204126088445 0.0002063307030655713 0.0002295743534594931 0.000258327476989713 0.00027662309671216116 0.0005271596832601801 0.8708604409625003 0.9059705442038167 0.9348629895020382 0.8960090774911403 0.6502500732531229 2.401137990381631e-05 1.0000000000000002 0.9999999999999996 0.9999999999999994 0.9999999999923895 0.9999965699221567 0.0008853620992829629 1.0554311419097156e-06 6.817459238733071e-07 6.224519725407557e-07 5.634187491342612e-07 5.154263034503627e-07 4.83523583565459e-07 4.769029581587382e-07 5.016698677802962e-07 0.00015989937063689454 0.9999370853701657 0.9999663091871678 0.9999772512861936 0.9999839948914165 0.9999882170099861 0.9999909740631249 0.9999927582647631 0.9999937955958671 0.9999890601508908 0.9949813582104906 0.000502028123176567 1.2783293683311488e-07 7.399797609545106e-09 1.4800978167003617e-08 2.1695674267779285e-08 2.8148099058847945e-08 3.458400279073069e-08 4.210141306739762e-08 5.291427742910199e-08 6.0860471267525916e-05 0.8696284575867118 0.8991120234438446 0.9212966808744402 0.8790359433721077 0.6268827828034202 2.37258887060846e-05 1.0 0.9999999999999998 0.9999999999999993 0.9999999999843902 0.9999949245727233 0.0008673982891907695 3.636138039560472e-07 3.499422152569954e-10 2.2072852405425046e-10 1.9164693178771758e-10 1.673231665283589e-10 1.4964316147005872e-10 1.4195200383279126e-10 1.222150664264749e-08 0.00015516693056854893 0.9999054214998442 0.9999540102632257 0.9999696514567912 0.9999780198090821 0.9999833858608601 0.9999870224980599 0.999989537668035 0.9999909417261293 0.99996051301711 0.9917973353452466 0.00047691316213964506 1.1277523987285933e-07 1.782718757611929e-11 1.1026203937411918e-12 1.8423989778201823e-12 2.6424290654344143e-12 3.5043393945227235e-12 4.599139169612811e-12 2.1029796570713487e-09 5.72377317218474e-05 0.8675495017268909 0.8934357299028731 0.9097767107694907 0.8583320285701481 0.5963039773559932 2.329447044134966e-05 1.0000000000000002 0.9999999999999994 0.9999999999999989 0.9999999999732477 0.9999932453196786 0.0008435825466377625 3.4548535881848614e-07 9.399547858951527e-11 7.695420225888061e-14 4.7686830309847404e-14 3.936831054604392e-14 3.3062075654002166e-14 6.017789386565544e-13 1.133372010238798e-08 0.00015017093125800014 0.9998712908712682 0.9999404803869834 0.9999614873247132 0.9999720576903863 0.9999786439779983 0.9999831837273095 0.9999864405620598 0.9999872921025953 0.9998870216638418 0.9875251046876264 0.0004472792217852617 1.0514729752328761e-07 1.6448321550516507e-11 1.9904090048921534e-15 1.249804811584845e-16 1.9189808923963464e-16 2.6918711405242055e-16 4.714548754770788e-14 1.8638245163600485e-09 5.346327311303352e-05 0.8642621592718871 0.8871138332000942 0.8966684760472126 0.8329827447241239 0.5605613615799929 2.2700345622775763e-05 0.9999999999999999 0.9999999999999993 0.9999999999999986 0.999999999958802 0.9999915281829133 0.0007976503188091717 3.1315854456230234e-07 8.129775404209799e-11 1.5901185149801488e-14 1.18360521923641e-17 7.190392487904362e-18 2.4297475851011854e-17 5.096371294774079e-13 1.0463279749315958e-08 0.0001441366819863528 0.9998350198017765 0.9999252434130262 0.9999524622952467 0.999965692021145 0.9999737605947134 0.9999793230519427 0.9999832670778629 0.99998048929276 0.9997376376811933 0.9823780397308444 0.00042786448016966837 9.908721437808676e-08 1.5561628026616868e-11 1.8415878585382774e-15 1.826566558353393e-19 1.157159667728825e-20 7.713221490636346e-19 3.9338843758472373e-14 1.6386214775669575e-09 4.9558855795728996e-05 0.8592123585677515 0.8787322562006709 0.8804733111994946 0.8031563129694558 0.5219854582055063 2.193951884796231e-05 1.0 0.999999999999999 0.9999999999999982 0.9999999999409656 0.9999897794279876 0.0007515179816147297 2.7898067348637493e-07 6.826804851490127e-11 1.2451829775325256e-14 1.826716815807568e-18 1.8910229918084775e-21 1.557469988118187e-17 4.419124455019298e-13 9.485329850480592e-09 0.00013700272409635577 0.9997974400516717 0.9999077901670792 0.999941907114556 0.9999583707145908 0.9999682681320897 0.9999749913528105 0.9999791116549238 0.999965598388489 0.9994885691827295 0.9767181624563203 0.00041367094610494996 9.474254015288487e-08 1.4838419609806872e-11 1.7581172916921723e-15 1.678527388609851e-19 3.6246608385565787e-23 6.016572711595695e-19 3.2659807139234354e-14 1.4250576379989888e-09 4.55672765202675e-05 0.8516219297323431 0.8671568577386697 0.860301129201044 0.7698249295388134 0.4834405731483392 2.1027668294773433e-05 0.9999999999999999 0.9999999999999989 0.9999999999999974 0.9999999999196955 0.9999880057609651 0.0007082991250698555 2.4861615784789697e-07 5.675894014304748e-11 9.531046453217665e-15 1.1288376757614587e-17 6.1702951515313256e-18 1.6039415330908715e-17 3.7123631290699036e-13 8.40394535913012e-09 0.00012859812318588944 0.9997580536121468 0.9998859072788877 0.9999275934614915 0.9999478994586855 0.9999598769185527 0.9999674609240807 0.999969810049945 0.999934043100493 0.999149832139058 0.9712814878075918 0.00040622034334631253 9.277767249235128e-08 1.446477595703901e-11 1.7039913878979382e-15 1.0665414272956982e-18 7.849880698877024e-19 1.1491049765439428e-18 2.6709153155343214e-14 1.2232631582395731e-09 4.147865712276092e-05 0.8403353956891001 0.851160517384749 0.8358877500641597 0.7350564524401502 0.44824358036193573 2.0005586492449176e-05 0.9999999999999997 0.9999999999999987 0.9999999999999972 0.999999999894929 0.9999862287971403 0.000690850762702338 2.2885036251674045e-07 4.913436077894294e-11 4.3777911399126444e-13 3.074630762268299e-13 2.0675447800191807e-13 1.3173009704777971e-13 3.7817027728246475e-13 7.211087045868381e-09 0.00011853992577301933 0.9996925594542961 0.9998325991910071 0.9998823890140179 0.999907407987829 0.9999220442704368 0.9999305715340678 0.9999296906627483 0.9998643756299481 0.9987810747115307 0.967364418438328 0.00041339342580121034 9.478079276420373e-08 1.4808622574764097e-11 5.293732601286154e-14 4.579547425214842e-14 4.077379770843473e-14 3.6150379138710143e-14 5.325867891255883e-14 1.030374170303569e-09 3.7209292485426486e-05 0.8233562043671625 0.8291383365461072 0.8076483946772937 0.7022297714073149 0.42036793919290705 1.8942238299458253e-05 0.9999999999999997 0.9999999999999801 0.9999999999964062 0.9999999992366668 0.9996380559821783 0.0006363067447952549 2.2727913503387197e-07 1.1178974461433508e-08 9.242210351903163e-09 7.247455139004462e-09 5.399416853470028e-09 3.828038283362028e-09 2.575483174406185e-09 7.502868841663563e-09 0.00010594034029628448 0.9991499576288017 0.9993109031919635 0.9994027841132934 0.9994769803401776 0.9995431328902485 0.9996052773857895 0.9996567504303094 0.9996242812751758 0.998448804542872 0.9658249979729656 0.0004161621117264848 1.0225972302536278e-07 2.196088973246393e-09 2.0147473637237584e-09 1.8542055858075378e-09 1.700504384494982e-09 1.5539035167456365e-09 1.4139415677712195e-09 2.116935366681898e-09 3.249462430144775e-05 0.7960261764191336 0.7981638490377393 0.7763265515874397 0.6754864160445656 0.40416573841631226 1.792948767341126e-05 0.9999999999999996 0.9999999999352613 0.9999999960428798 0.9999997889190748 0.9996538803871726 0.0013516133551576888 0.00015904186937204645 0.00014857401763984545 0.00013449460237944968 0.00011756142768670309 9.908671841490494e-05 8.017041435716329e-05 6.179297347180704e-05 4.481165447227284e-05 0.00011783988347772961 0.9910223299407855 0.991925777735093 0.993264725663181 0.9944818228967692 0.9955645478407917 0.9965292869244144 0.9973911650243406 0.998050956882237 0.9975967500757433 0.971259824246123 0.0006808605610534357 6.320576331271997e-05 6.0383988279525254e-05 5.7624485426019445e-05 5.483925735982154e-05 5.205200593000499e-05 4.926930137336861e-05 4.648361481350892e-05 4.3663784514065796e-05 6.682822339539702e-05 0.7369015365404825 0.7443279816739011 0.7384385333514822 0.6563926022818766 0.402494278079861 1.705894750607797e-05 0.9999999999999731 0.9999999845301577 0.9999996341663171 0.9999937072041273 0.9996651097970536 0.9996349331067981 0.9995854996400338 0.9995076221858389 0.999358471910912 0.9981291050691848 0.9906616457594867 0.9651536856632092 0.9064928807604874 0.8034866440094308 0.6511440093557648 0.6662099109334189 0.802150430985372 0.8750298293898581 0.9182164370560395 0.9448746555708283 0.9624160782313363 0.9745139637081749 0.9833928078775943 0.9883345853849707 0.9742545224710747 0.9718480891536582 0.9681693685452675 0.9635244755986999 0.9579892075506339 0.9515074394580388 0.9439771225156827 0.9352470028995264 0.9250930204867609 0.9131201152346241 0.8984754492115197 0.8735164626713849 0.781585986513336 0.7322192547694012 0.6517861882338983 0.41738141030957826 1.6396662490273547e-05 0.9999999999990907 0.999999440860821 0.9999932701783524 0.9999550466364826 0.9996889994096518 0.9996462369209321 0.9996231034627984 0.9995889784751986 0.999463301422445 0.9977743930927905 0.9880164378031251 0.9571290139388164 0.8908644411872716 0.7822851844844547 0.6349873221196015 0.5211560931039022 0.5376423610089969 0.6138613724047712 0.6934852062644937 0.7624345892625879 0.8189429098190759 0.8649712123913058 0.9011949019057928 0.9311666027059187 0.9416040862254694 0.9477829180338803 0.9452229134827952 0.9405107277226913 0.9343411967481348 0.9269684222973291 0.9184175147532543 0.9086459187035794 0.8975890735149182 0.8852531002016854 0.8713962934758424 0.8555977774839492 0.8143448004844949 0.7546228142990459 0.6701876957515397 0.44673151794540883 1.5956013251625147e-05 0.9999999999910406 0.99999406157323 0.9999667637270885 0.9998702615952781 0.9996767745113925 0.9996445362596059 0.9996274439977575 0.99960031611802 0.9990938638053478 0.9942830590374973 0.9744319322611846 0.9250153479441764 0.8371651681120462 0.7152905169410863 0.5769734832340672 0.45070432172295244 0.3792518123467992 0.3724549774308183 0.4085839083285523 0.46610914888023874 0.5323895285309503 0.6003311622478935 0.6662183379193395 0.7241235238866192 0.7680139947101469 0.7891356933257169 0.7989060217501327 0.7966892303491802 0.7896806259513224 0.7799388904947689 0.7686015719594891 0.7564019899797173 0.7443313211819602 0.7340771829895872 0.7293453876465146 0.7339743321953843 0.7429961855207247 0.7353460304156795 0.6806049829448108 0.4935996302080001 1.5720033665325453e-05 0.9999999998294499 0.9998556335237668 0.9992782854235269 0.9985892604431755 0.9977785138095219 0.996677400109004 0.9947278516495389 0.9905028635456149 0.9757287650487574 0.9401590623940411 0.8730613040968936 0.7715653103918428 0.6448535548648832 0.5112403997217182 0.38975240247415793 0.2921898468389639 0.22400393801688775 0.18624540102394602 0.17532789967418957 0.1854084885036269 0.21120112915880832 0.2486870407110226 0.29386285632522163 0.3412800999011531 0.3811488051826228 0.40968425165334227 0.42190742573868784 0.4237329294647638 0.41826366871390214 0.40941201662607707 0.39912876789891377 0.3888479476453648 0.3802302345783344 0.3762388355019305 0.3818150389166797 0.4058424022755279 0.44764266265126773 0.5328835346172344 0.5792948623205303 0.5033216722772677 1.556580962372745e-05 0.9999998380417219 0.8292257078871662 0.005526043523517483 0.00446609414588264 0.0051256013033274955 0.005136108881232869 0.004958412461140447 0.004515998054928112 0.0038949864575165286 0.003203204082861983 0.002511500003827375 0.0018758325422418886 0.0013377852774784384 0.0009190690791158805 0.0006186152689706571 0.0004182234201986227 0.00030018121483284954 0.00025287053937094 0.0002635998078939037 0.0003194410719989149 0.00041111368601660974 0.0005330149411065053 0.0006780141288941263 0.0008297205929632095 0.0009488760106954272 0.0010174539408538874 0.001019773812336629 0.0009806963072532893 0.0009161502053394459 0.00084206272971774 0.0007660761627084582 0.0006928542965860049 0.0006260434061593408 0.000570634358129803 0.0005320545505227304 0.0005221806994012684 0.0005087803554296159 0.0006443600218314351 0.5743933208064415 0.5127911779345833 1.545406371401815e-05 0.999999696306432 0.8370228072034264 0.001437275418596316 0.00014694415617790685 0.00014708494393747513 0.00014539194773371657 0.0001418489029460893 0.00013674987024260002 0.00013081990857210143 0.00012469363564275796 0.00011871240068303423 0.00011307258858288175 0.0001078846861479663 0.0001031931677420572 9.897486241851572e-05 9.514140232133373e-05 9.16013336926529e-05 8.826840155767867e-05 8.507605631896251e-05 8.197634581984448e-05 7.89379363356283e-05 7.593615828214134e-05 7.292940326582619e-05 6.982541305000117e-05 6.643088861246632e-05 6.251676846912486e-05 5.7778688283789e-05 5.180638514394815e-05 4.3884015084638666e-05 3.273134273901214e-05 1.6593671690810108e-05 1.0690719087040447e-06 3.259918366839261e-06 6.189684081935559e-06 8.94623019977225e-06 1.1231448913069652e-05 1.2986461146570615e-05 3.189545455172251e-05 0.5684280270767219 0.48667948794930066 1.5334289154118437e-05 0.9999995518119097 0.8518372008126321 0.8518084814604314 0.8517586295241301 0.8516743576803135 0.8515602643491227 0.8514158124483697 0.8512425467058231 0.8510419678058209 0.850816288331025 0.8505687451328567 0.8503040203372022 0.8500280954282374 0.8497470400309628 0.8494648608320947 0.8491810479502995 0.8488923780406531 0.8485927045998617 0.8482754751582092 0.8479335615149923 0.8475579850627983 0.8471352105825214 0.8466415127656147 0.8460306834659603 0.8452031699723725 0.8439140026661966 0.8414817025139502 0.8355849239498053 0.8171624661237014 0.7489002872691569 0.49850734257265594 0.01649329901846991 0.14857403322295162 0.2759592481101749 0.366285923199785 0.42561673689537594 0.46408716728947946 0.4887506045683509 0.503169706769646 0.42824517928464395 1.5148236593313962e-05 0.9999994289880226 0.8965199636074812 0.869592118883876 0.8647035692744166 0.8618765749554513 0.8601513408837653 0.8589642965256454 0.8581096336321998 0.857481093094253 0.8570299400799365 0.8567406551432127 0.856622692249357 0.856677167456777 0.8568967442627776 0.8571514944483777 0.8563568755662511 0.8552338883271546 0.8543500173885827 0.8538064670065105 0.8534503164321834 0.8531391019290128 0.8527298575539817 0.8521667648816167 0.851349323396049 0.8501063810664887 0.8482403932724837 0.8450223599918838 0.8383011810120835 0.8188785790409308 0.7494904823232317 0.5007132049299838 0.013492857060425512 0.1383334167505345 0.2588967156127787 0.34193091075175724 0.3924446984865707 0.4191376852888007 0.4281064760835251 0.407807754600786 0.3122179962236045 1.4796622022668218e-05 0.9999992999304836 0.9199602501226848 0.8908729893693301 0.8784675256895836 0.8726889799375537 0.8691111743243987 0.8667251951385951 0.8650450589708863 0.8638467366592767 0.8630187068849509 0.8625187476932052 0.8623492813395017 0.8625513506159552 0.8631328816777708 0.8632441970159388 0.8449554196022823 0.829368111666005 0.8225244187399006 0.8191558761022858 0.817695148620684 0.8170627575796008 0.8166233414874225 0.8165831604865931 0.8176406919368082 0.8203815767560443 0.8253549713127907 0.8286566964369114 0.8277994366212339 0.8122184118987845 0.744999463052413 0.5034989761628965 0.007823346593538283 0.12271149446905062 0.2370644982356966 0.3152142075716641 0.3600821889966717 0.3798465202761921 0.37725477440598126 0.34278056755415426 0.2446461115454353 1.425645922073445e-05 0.9999991625039342 0.9366173388693735 0.9067756864379972 0.8917743898361649 0.8833180180697499 0.8780819985655502 0.8745366113732216 0.8720334446802538 0.8702419196784403 0.8689979321400343 0.868234213014754 0.8679701026173731 0.8682337044326887 0.869162514181431 0.8655532631217352 0.6890822461693328 0.6470630332478018 0.629124677072022 0.6217976891777518 0.6187738054144567 0.617890741844669 0.6180114627824278 0.6204937744580071 0.6262442065104503 0.6533467192997239 0.684556180280667 0.7492995387752533 0.7820542875720408 0.7871949255761942 0.7313972116964191 0.5049026970743724 0.028809963721803077 0.10300502112997495 0.21149234573984427 0.28675491407569265 0.3288031434022634 0.3444188448389363 0.3357557758467633 0.29536914979344203 0.20044013107867417 1.3530845505086689e-05 0.9999990188729299 0.9480134411017151 0.9196731310907301 0.9033359194294562 0.8933291950019171 0.8867611130648827 0.8822135292004254 0.8789473914741934 0.8765739847039934 0.8748881172064282 0.8738044825857801 0.8733229413593833 0.8735719968134324 0.8741066679645809 0.8567477678132465 0.0007129589432564149 6.268930188886443e-05 5.870026700133794e-05 5.5832905192766897e-05 7.891524233909387e-05 9.948490770737924e-05 0.00011790482614681486 0.00014069663592677285 0.00015697074642790512 0.0003420048279057214 0.6829459779607643 0.7152838704368149 0.7512831865297175 0.7621168726616826 0.7133313759407081 0.5050164400651969 0.0674012981478493 0.08051128192979815 0.1829423430069691 0.25697452305324275 0.29846906340597984 0.3127634059265183 0.30189570491139955 0.2602943351592016 0.17137616845292342 1.2674922169009766e-05 0.9999988701959079 0.9564061516957357 0.9300125906431659 0.9134084498673689 0.9024908142247686 0.8949888653646417 0.8896266008587306 0.8856859893965167 0.8827551607400788 0.880603965197357 0.8791205982469225 0.8782969794953248 0.8781619712240838 0.8779032809645272 0.842207415395294 0.00038300716378616295 9.403340241308047e-08 2.9224457425467076e-09 2.7947872598556977e-09 5.545792672304832e-09 8.605353440259395e-09 1.1999768892332088e-08 1.6346751272689794e-08 2.3253303355766167e-08 4.2012609622359894e-05 0.6795507106017676 0.7047043621108917 0.7304393858969069 0.7393024401475249 0.6928755231123668 0.5041794480840703 0.1158295784567009 0.06259247809584512 0.15203542885948537 0.22597038410210285 0.26890117467824387 0.28420565608546405 0.27388055741678974 0.23381015491007978 0.15122296105756716 1.174687541778582e-05 0.9999987175232871 0.9628157088644859 0.9385124499099892 0.9221686816822227 0.91082932295229 0.902705427746965 0.8967135286325348 0.8921911768824391 0.8887324315389046 0.8860916779313025 0.8841319440664483 0.8827909581511488 0.8820147702944059 0.8798708986999757 0.8271515156513616 0.0003379533045401274 7.309107442582153e-08 1.0712936518486252e-11 1.1681287157747231e-13 2.8492067932617687e-13 5.194055145768854e-13 8.213325691591972e-13 1.2789953323962963e-12 1.2676098125875032e-09 3.851513068416021e-05 0.6736289897503602 0.6937770553539684 0.7128985941505127 0.7161945556950003 0.670179178825437 0.5030431998975102 0.1690553076441284 0.061455015721786355 0.12041444543056878 0.19366132629586302 0.23967611967494662 0.25796737881956766 0.2502188007552531 0.213307633165528 0.13689020970169086 1.0803138446163238e-05 0.9999985615412463 0.9679032114001138 0.9456418868195959 0.9298700445755306 0.9184316440840075 0.9099330486405866 0.9034701747276557 0.8984539283737066 0.8944981808843062 0.8913502092810551 0.8888457099477401 0.8868684079264642 0.8851755941166828 0.8804331646336762 0.8110226855038988 0.0002976085465293573 6.164123633351251e-08 8.790443781195363e-12 9.605960221196513e-16 1.2138982821169603e-17 2.4340308724709266e-17 4.2305063338380384e-17 2.381166587180279e-14 1.0562741001973644e-09 3.4483844291807015e-05 0.6634179253686984 0.6792096878571763 0.6920760569317587 0.6898405550666098 0.6449328568612281 0.501591618331034 0.22331898406937084 0.07915804591704906 0.09555535970392591 0.15891659301599279 0.20881938536119435 0.23257797079370635 0.22956949826527215 0.1971676768198123 0.1265798752488888 9.888711656553676e-06 0.999998402562763 0.9720765611069384 0.9517612104744504 0.9367377582278791 0.9254256954885817 0.9167418422517469 0.9099424871389035 0.9045131542323412 0.9000949152912322 0.8964331955580707 0.8933405198390187 0.8906443726537175 0.8878819180159636 0.8800556057604455 0.7958482802797837 0.0002735900762061511 5.4461064570459816e-08 7.631213588008865e-12 8.249338998259251e-16 7.363086457190458e-20 9.515443619351803e-22 3.0416728603161266e-19 1.772619800496726e-14 8.429996514495653e-10 2.987873142571981e-05 0.6450934749089281 0.6563779092764986 0.6635741988760784 0.6571470484358545 0.6159586456467602 0.4986181573506392 0.27493308530526966 0.11396532456764287 0.08504600745125127 0.1268435267594703 0.17605628619353547 0.205828989515151 0.20923239231319793 0.18266322068291063 0.11819095829398041 9.033099441798007e-06 0.9999982286835425 0.9756091303283635 0.9571398743769268 0.9429744988374532 0.9319520808068789 0.9232347375974242 0.9162156828854779 0.9104514507515983 0.9056123589408344 0.9014462017881492 0.8977452444074692 0.8942774572662263 0.8903251589323175 0.8792829794424077 0.7827355652683334 0.00025618156141272503 4.937681973157075e-08 6.760893865752334e-12 7.182653521648112e-16 6.281115512058844e-20 1.0449740850410977e-23 1.9636872940728574e-19 1.2277809402610442e-14 6.303840960544641e-10 2.4599948929017886e-05 0.61066814198889 0.6175689653059585 0.6208518012694019 0.6135429959000811 0.5801547721010719 0.49074999029344035 0.31933687939130606 0.16072162223733558 0.09329749965506146 0.10415494093457316 0.14433076254434068 0.17791692146340135 0.1886752249748768 0.16923283947748002 0.11124593420176786 8.254778832645133e-06 0.9999975684524269 0.9786888996107944 0.9619848074230383 0.9487566817276422 0.9381538462228545 0.9295327361838442 0.922402472831015 0.9163836347658644 0.9111759074828697 0.9065303440350273 0.9022178704454228 0.897938705558648 0.8927162513880406 0.8787105859134117 0.7733611264009566 0.00024524769118332827 4.616819002317417e-08 6.165094761913125e-12 6.383299493258135e-16 3.193019923867547e-19 2.195242655522443e-19 2.918247579358644e-19 7.482371778653391e-15 4.20367909133216e-10 1.8409427396636216e-05 0.5425370255928595 0.5469774199210975 0.5512080010429335 0.5494965994698601 0.5300156067927058 0.4710043461443083 0.3497808366252624 0.21068553724972008 0.11961573937082148 0.09682162241735881 0.11850437147985035 0.1503039505952646 0.16761834241327547 0.15638173127781366 0.10550724766964063 7.5633883409426875e-06 0.9999861741828012 0.9814397184114425 0.9664459504280842 0.9542226061350143 0.9441524335885665 0.9357451163860998 0.9286063700951408 0.9224130723818915 0.9168913590859241 0.9117950928038148 0.9068737208814079 0.9017623441221857 0.8952959760375081 0.8790394295347169 0.7702804631441988 0.00024469616941614954 4.5263670123645557e-08 5.921245465321101e-12 1.94553382660437e-14 1.6214461154830095e-14 1.3849394909897756e-14 1.1765688904857523e-14 1.3347816638557494e-14 2.1342777902955945e-10 1.081164025221216e-05 0.39687262853711563 0.4064956706789759 0.42477601337598936 0.44234519691906254 0.4480438375634215 0.4252352786550527 0.3547511551467554 0.25045069514287766 0.15637127801518225 0.10683940889946643 0.10396389136397777 0.12611941229698845 0.14652221276544478 0.14367522810333647 0.10074678320810647 6.962098697726656e-06 0.9998275635566801 0.9838167224481866 0.970495879150368 0.9593310051482314 0.9498802902556015 0.9417732567022021 0.9346946173196647 0.9283701724475039 0.9225530333782995 0.917009102355963 0.9114852559774654 0.9056015358169907 0.8981545171208213 0.8811651372018213 0.7739406525177611 0.00024333378555616348 4.7057667528355224e-08 1.028077453472771e-09 9.152199394471696e-10 8.140050301306106e-10 7.19917017956188e-10 6.334676633443014e-10 5.549329090100488e-10 6.490572693453093e-10 7.393148166620387e-07 0.03690553772341998 0.08566350992134164 0.15815597701977793 0.23374895892960637 0.29279307067746196 0.323480852303187 0.31224688576596105 0.25887453872879246 0.18659113952370285 0.12810006276628902 0.10325856311145003 0.10937692744653776 0.12700658069100448 0.1309674704779614 0.09672409438907534 6.449632562741878e-06 0.9983457267556018 0.9846833702524735 0.9729658298316446 0.9628364787225856 0.9539845372965501 0.9461357397300304 0.9390473439624144 0.9325040471832592 0.9263153461491979 0.9203072519793626 0.9142974024699058 0.9079760899497092 0.9003612949538874 0.8848239905993464 0.7979073042415056 0.0003988621442580428 3.850007554939523e-05 3.601701041682531e-05 3.354022490766073e-05 3.106932293761914e-05 2.8641405710048543e-05 2.628148093846566e-05 2.4012804596001048e-05 2.8748938102880197e-05 4.531373806982395e-05 0.46222639348539274 0.4111692551153894 0.31865667698002453 0.2563438595571183 0.2376721129730994 0.2443432817426283 0.24989787268013103 0.23424510963774947 0.19494264030400563 0.14740649371320957 0.1127016689590463 0.10257455097066652 0.11160844470304333 0.11871168162710495 0.09323235732397646 6.022094548303398e-06 0.9888212237916749 0.9772759140674032 0.9669416147902995 0.9575969499487322 0.9490466001052147 0.9411257913916932 0.9337074711732926 0.9267091860067844 0.9200989090829877 0.9138825358451675 0.9080672322885474 0.902512764875703 0.8965784873125607 0.8860333522724371 0.820092050302216 0.813473061900701 0.8033458478969205 0.7906465192838834 0.7756954722997245 0.7585189424684586 0.7391051620295974 0.7174565951618956 0.693674803633876 0.6680814892941105 0.6418158547505898 0.600617401606661 0.5274335108940365 0.4682529726153471 0.38769872741114814 0.3141336118825097 0.26417369165710136 0.2361483793172319 0.21642321965098643 0.19169041619299312 0.15867813249496152 0.12561788687755135 0.10507395015850454 0.10277107333373885 0.10812665307486322 0.09020160117817956 5.674574961455893e-06 0.9460935591717924 0.9363601855406932 0.9270113746349271 0.9179698033274739 0.9092113033569559 0.9007745464140748 0.8927861107039785 0.8854598578338451 0.8790964732844603 0.8740396429544167 0.8705635175511854 0.8688032034527239 0.8679946527616289 0.8663552094310473 0.8427404939613382 0.8249668485880406 0.8124830390605365 0.7980439248261487 0.781548653689761 0.7627500982516614 0.741553114142174 0.7178200116