# vtk DataFile Version 3.0
vtk output
ASCII
DATASET RECTILINEAR_GRID
DIMENSIONS 41 41 1
X_COORDINATES 41 double
0 1 2 3 4 5 6 7 8 9 10 11 12 13 14 15 16 17 18 19 20 21 22 23 24 25 26 27 28 29 30 31 32 33 34 35 36 37 38 39 40 
Y_COORDINATES 41 double
0 1 2 3 4 5 6 7 8 9 10 11 12 13 14 15 16 17 18 19 20 21 22 23 24 25 26 27 28 29 30 31 32 33 34 35 36 37 38 39 40 
Z_COORDINATES 1 double
0
POINT_DATA 1681
FIELD FieldData 1
Concentracao 1 1681 double
1.0 1.0 1.0 1.0 1.0 0.9999999999999998 0.9999999999999998 1.0 1.0 1.0 0.9999999999999998 0.9999999999999996 0.9999999999999994 0.9999999999999993 0.9999999999999992 0.9999999999999991 0.9999999999999991 0.9999999999999991 0.9999999999999988 0.9999999999999664 0.9999999999982953 0.9999999999510786 0.999999999186421 0.9999999915158384 0.9999999393036791 0.9999996761093728 0.999998614298669 0.9999949826799998 0.9999840112209113 0.9999539271880833 0.9998775517684849 0.9996947706461012 0.9992739875865834 0.9983185840083624 0.99611402117226 0.9907858798492092 0.9769343023280362 0.9381110713568983 0.8253616405951723 0.526190386319127 1.4552211569997408e-05 1.0 0.9999999999999998 1.0 1.0 1.0 0.9999999999999997 0.9999999999999996 0.9999999999999989 0.9999999999999989 0.9999999999999987 0.9999999999999982 0.9999999999999977 0.9999999999999976 0.9999999999999976 0.9999999999999973 0.9999999999999971 0.9999999999999971 0.9999999999999973 0.9999999999999969 0.9999999999999608 0.9999999999980563 0.9999999999429376 0.9999999990337742 0.9999999898210923 0.9999999205565595 0.9999960923308475 0.9999846568582338 0.9999699489238023 0.9999520031956924 0.9999182043318602 0.9998348008818768 0.9996401830671799 0.9992037499930783 0.9982383038386125 0.9960628292853789 0.9908431615313688 0.9773291830010477 0.9390139787608067 0.8267767774715071 0.5272476721317103 1.4575785755080972e-05 1.0000000000000002 1.0 1.0 0.9999999999999999 0.9999999999999997 0.9999999999999996 0.9999999999999989 0.9999999999999987 0.9999999999999982 0.999999999999998 0.9999999999999976 0.9999999999999973 0.9999999999999968 0.9999999999999964 0.9999999999999958 0.9999999999999958 0.9999999999999952 0.9999999999999947 0.9999999999999943 0.9999999999999484 0.999999999997348 0.9999999999164957 0.9999999984817409 0.9999999832215981 0.9999986489893683 0.9996889497474418 0.9991732449636741 0.9987470659309396 0.9985509273683957 0.9984981016792348 0.9983974094703204 0.9981903349353518 0.9977662456204515 0.9968927205138425 0.9949750736297805 0.9903882182176369 0.9777318224143499 0.9407697591639513 0.829024395547928 0.5281080465601098 1.4599268872014429e-05 1.0 1.0 1.0000000000000002 0.9999999999999998 0.9999999999999998 0.999999999996845 0.9999999999902568 0.9999999999794958 0.9999999999641825 0.9999999999441653 0.999999999919723 0.9999999998918456 0.9999999998627668 0.9999999998375784 0.9999999998254708 0.9999999998359481 0.999999999858133 0.9999999998851006 0.9999999999058725 0.9999999999209009 0.9999999999263175 0.9999999997731424 0.9999999964539295 0.9999999538870263 0.9999385600557282 0.9904380731248705 0.9803351411214623 0.9759916730591544 0.9742126833008599 0.9740758006599264 0.974093418443171 0.9743162937455626 0.9748538477986047 0.9760571300223733 0.9778235966766043 0.9787119326353748 0.9718759647039937 0.9392918499714743 0.829052142875626 0.5258554887464365 1.4593983559231623e-05 1.0 1.0 0.9999999999999999 0.9999999999999999 0.9999999999942579 0.9999979346833748 0.9999960174012453 0.99999409273539 0.9999921092360723 0.9999900812260709 0.9999880497954148 0.9999860864585295 0.9999843492809417 0.999982989752217 0.9999836516799949 0.9999864897474383 0.9999920001294605 0.9999949103479795 0.9999966970392083 0.9999977331004365 0.999998346854557 0.9999986978747941 0.9999988595286274 0.999998425937702 0.9991674867917119 0.8386821991016019 0.80354488931226 0.7885683063226285 0.7835663733652347 0.7832445123124224 0.7840608604264091 0.7864839999900721 0.7921650644672683 0.8018973635413766 0.8329941835844852 0.8648342686977688 0.9180613600767027 0.9164562689822636 0.8182533751855171 0.5167960121599421 1.4523518029656187e-05 1.0000000000000002 0.9999999999999998 0.9999999999999997 0.9999999999974846 0.9999982241572427 0.001512550040441251 0.0011531831861506013 0.0010960446168100343 0.001033348654753217 0.000976163022807958 0.0009313730614267987 0.0009016669533943734 0.0009102994045242821 0.0008924142056078951 0.0016521192248872497 0.9999624611715673 0.9999761027313093 0.9999854275758991 0.9999902817425593 0.9999931820442924 0.9999949342920859 0.9999959870401747 0.9999964485908357 0.9999938750127813 0.994859028320962 0.0007057238544822279 7.854598466037869e-05 8.294591640061063e-05 0.00012500238339347965 0.00015121802630729578 0.00017184097313476925 0.00018934810646855678 0.00021084785563572713 0.00022332218426444097 0.0004198331478927357 0.8628169726254741 0.8910773372379663 0.8952905406015704 0.8006560213988663 0.49863298756788943 1.4353857007062341e-05 1.0000000000000002 0.9999999999999996 0.9999999999999994 0.9999999999923888 0.9999965695529602 0.0008079097875913983 8.784512040385724e-07 5.6588628641545e-07 5.154119427046381e-07 4.6537170601374124e-07 4.246579632646653e-07 3.973600377051373e-07 3.90928506030376e-07 4.1011480615149145e-07 0.00014377924704190936 0.9999370791963947 0.9999663050075503 0.999977248325637 0.9999839927777119 0.9999882154492858 0.9999909727057225 0.9999927475301167 0.9999933267903005 0.999963131266977 0.9893483053606816 0.0004215404755308297 9.249659515952005e-08 5.447905570553719e-09 1.0763751037961275e-08 1.5562704150931018e-08 1.989593050307359e-08 2.4064315553837367e-08 2.881508205144435e-08 3.550762795179821e-08 4.6993020136915914e-05 0.8586739473901629 0.880298264165174 0.8761925888860759 0.7753452344005667 0.4719924514739956 1.4061985902290842e-05 1.0 0.9999999999999998 0.9999999999999993 0.9999999999843886 0.9999949240835835 0.0007907742074386245 3.0221086969711424e-07 2.6484208641724904e-10 1.6635201221328906e-10 1.4390685745777177e-10 1.2517551364312994e-10 1.1152945912249916e-10 1.0539120827989852e-10 9.832276393923712e-09 0.00013918708723907066 0.9999054148199663 0.9999540055784423 0.9999696479323236 0.9999780171074115 0.9999833837418004 0.9999870195786132 0.9999894741044723 0.9999882886886111 0.9998317344503335 0.9825878268974816 0.000394000703461233 7.958767761442246e-08 1.0888345071660162e-11 6.934922331882533e-13 1.13836320708506e-12 1.601716919629792e-12 2.0817658780818245e-12 2.67155952556602e-12 1.2954029114629153e-09 4.346200996142758e-05 0.8519040299047747 0.8680492633504697 0.8547290913393861 0.7428686973836875 0.4377628977311633 1.3629282094959938e-05 1.0000000000000002 0.9999999999999994 0.9999999999999989 0.9999999999732453 0.9999932447071767 0.0007683030743156957 2.8660106432928314e-07 7.102669018091294e-11 5.2843040292399095e-14 3.255951980849796e-14 2.6749109743903825e-14 2.235326815792603e-14 4.2954483071069684e-13 9.059903653025512e-09 0.00013418959085832513 0.9998712836374904 0.9999404752758894 0.9999614833403576 0.9999720544766979 0.9999786409174185 0.9999831688722814 0.9999860529166076 0.999975720029411 0.9995137782325824 0.9737072689088666 0.00036378220148417304 7.259114736842318e-08 9.771368630131534e-12 1.0284530593491618e-15 6.694348424861706e-17 1.0050264086820069e-16 1.3758894043152052e-16 2.339864702353866e-14 1.1184220889999407e-09 3.9785606627776785e-05 0.8417388228988598 0.8523524834118195 0.8282511863038597 0.7033351046608658 0.39904363010506255 1.30513958329933e-05 0.9999999999999999 0.9999999999999993 0.9999999999999986 0.9999999999587983 0.999991527448746 0.000725738127732205 2.59268146487846e-07 6.125511288271766e-11 1.0904565797563415e-14 7.35841232704574e-18 4.438325133294858e-18 1.5235587369612282e-17 3.600179970959991e-13 8.28586512648854e-09 0.00012815365722538408 0.9998350098237452 0.999925235334785 0.99995245419391 0.9999656813003596 0.9999737354946461 0.9999791660887105 0.999981126955489 0.9999412616229423 0.9989054556170887 0.9632068709067687 0.00034265753419599794 6.696975611917636e-08 9.012562491661083e-12 9.22675636807448e-16 7.992478331741519e-20 5.264422269264378e-21 3.108023444123444e-19 1.8880382225918105e-14 9.54712361721059e-10 3.602649466257346e-05 0.8271478501376713 0.8316008542838514 0.7959645676304868 0.6586303010958395 0.3589364967337785 1.2339607904019075e-05 1.0 0.999999999999999 0.9999999999999982 0.9999999999409604 0.9999897785752135 0.000683063381711652 2.3050462406828726e-07 5.1283759191538506e-11 8.506063463941735e-15 1.1348446259550923e-18 1.048219085041887e-21 9.627319467698882e-18 3.070217994147248e-13 7.421900409568113e-09 0.00012101817497689072 0.9997972716791346 0.9999076042308253 0.9999416738811517 0.999958029992761 0.9999676402395995 0.9999731894468812 0.9999687204622287 0.9998575731110618 0.9979404498900878 0.9518648168721118 0.00032643820682844453 6.276542347172926e-08 8.391154803731474e-12 8.5745167500421405e-16 7.111428122355575e-20 1.2687247232250003e-23 2.326101168897595e-19 1.5114082140375575e-14 8.035915879491778e-10 3.22440668637861e-05 0.8069071115122711 0.8046373951693293 0.7579581790651279 0.61127049700705 0.3206034147656879 1.1523578024559652e-05 0.9999999999999999 0.9999999999999989 0.9999999999999974 0.9999999999196887 0.9999880047931863 0.0006431067544059581 2.0499225169725052e-07 4.2507843726147376e-11 6.483782871127372e-15 6.737368318360687e-18 3.488112780723899e-18 9.420598414438275e-18 2.5256424227460273e-13 6.474836958012257e-09 0.00011261216150931836 0.9997528003457425 0.9998802754624556 0.9999211945990317 0.9999401018244318 0.9999493534597723 0.9999500521981434 0.9999238200065941 0.9996813674876041 0.9966732315721619 0.9411301137476625 0.0003163988929930547 6.038815965747942e-08 8.008883652154318e-12 8.113311714040406e-16 4.415160701073239e-19 3.1716547440598015e-19 4.415019596060685e-19 1.1878198757602885e-14 6.651752942089899e-10 2.8451334746264087e-05 0.7794281494498331 0.7704452333909619 0.7152365617637265 0.5646216765811539 0.287062731532204 1.0651212037608197e-05 0.9999999999999997 0.9999999999999987 0.9999999999999972 0.9999999998949204 0.9999862277156636 0.000626595621194776 1.88297826120407e-07 3.6665506873587266e-11 3.0409720949410597e-13 2.0588421533812063e-13 1.3237812678583855e-13 8.008600403726308e-14 2.43386424327648e-13 5.4427391460833584e-09 0.00010255354194870558 0.9995945031112422 0.9997319173605635 0.9997781235721264 0.9997975808604573 0.9998028505647062 0.9997918435113852 0.9997284174400041 0.9993219870026886 0.9953113693483338 0.9334416253837277 0.0003188835266906072 6.086774202711224e-08 8.063653753667299e-12 2.6514744216797332e-14 2.2503118222410042e-14 1.959007192304399e-14 1.6962907599748087e-14 2.368675572852157e-14 5.376317578645121e-10 2.4602618666428663e-05 0.7421452702760152 0.7278507338053538 0.6696412404393989 0.5228984113452549 0.26137520887703963 9.786077104886733e-06 0.9999999999999997 0.9999999999999801 0.9999999999964061 0.9999999992366183 0.9996380340595745 0.0005764859442052996 1.8645356733090443e-07 8.920125515402983e-09 7.218969152623338e-09 5.49469501805504e-09 3.940833256313217e-09 2.6680069606312814e-09 1.7006251043037833e-09 5.318279818772721e-09 8.996745531701272e-05 0.9979362194638383 0.9981191342162741 0.99826424038555 0.9984054140843917 0.9985398367055954 0.9986619005213354 0.9987189848288605 0.9983550254201548 0.994078685635478 0.9303251517887897 0.0003192243716109922 6.507351451545104e-08 1.3448885552435068e-09 1.2138491394752852e-09 1.0967945256470549e-09 9.864445228921769e-10 8.829332958161405e-10 7.858770571482725e-10 1.1102681767356724e-09 2.0520211133444166e-05 0.6891444304594233 0.6741648030893902 0.6231350429633802 0.4903453812879907 0.24652424561205558 8.999449337659526e-06 0.9999999999999996 0.9999999999352573 0.9999999960426387 0.9999997889062154 0.9996538593043695 0.0012229621735919277 0.0001430036084073721 0.0001325997444565883 0.00011852038016271404 0.0001016145986540373 8.330974423928952e-05 6.493586180096964e-05 4.772120323026963e-05 3.264586717511407e-05 9.253360309210343e-05 0.9799712948493785 0.9816479397602249 0.9843472426420514 0.9868286490087694 0.9890613948276678 0.9910752281197741 0.9928739409729683 0.9940577330037662 0.9916769114866181 0.9404271656946692 0.0005244649650648888 4.790997577500287e-05 4.524803813793234e-05 4.261773021664439e-05 3.9983048236964756e-05 3.736963921838415e-05 3.478687859188379e-05 3.2231501044460645e-05 2.9679669140384224e-05 4.2429942253876076e-05 0.5943268225609043 0.5942807747649435 0.5719597254424423 0.4676877111249662 0.24411440348090993 8.352208453487874e-06 0.9999999999999731 0.9999999845292155 0.9999996341440335 0.9999937068208196 0.9996650893982683 0.9996349088199965 0.9995854745385819 0.9995066393480535 0.9992410446372315 0.9964181160772146 0.9814808583884369 0.9374225320918959 0.8490970780634064 0.7132389476906483 0.5377807527273007 0.5783251893063888 0.745968998138993 0.8332782041443635 0.8850329655462018 0.9176828084972963 0.9400995231546191 0.9564706352001474 0.9692067023473576 0.9754817913947675 0.9464719757714227 0.9414955207520032 0.9338819226946893 0.9243338983911816 0.9130579443823309 0.9000048878455578 0.8850522501296915 0.8680072893399556 0.8485748221180025 0.8261999396655848 0.7996139875057277 0.7582521867286379 0.6339832905102867 0.562945395056293 0.46257665691712596 0.2558239583526989 7.882029611430593e-06 0.9999999999990904 0.9999994408267611 0.9999932697684166 0.9999550438982608 0.9996889804659718 0.999646213751151 0.9996230795133625 0.999587003934145 0.999269043377242 0.9953121443574239 0.9760936175824597 0.923816677167142 0.8260965274379621 0.6855753105183039 0.5181014977358147 0.4059304187122679 0.4397376467187414 0.5319733754370607 0.6231027896352548 0.7007744234196007 0.7647985199070506 0.8181486108984427 0.8615317772708591 0.8983363114340178 0.9070742279417368 0.9112827418199054 0.9047823275528534 0.8949113855762005 0.8826315376229864 0.8682665035488699 0.8518644195674725 0.8333935600044537 0.8128007091460121 0.7901061650219722 0.7649591383596975 0.7362794388836442 0.675608588277142 0.5921786800637749 0.4857338147036011 0.28139074063997527 7.590568742577735e-06 0.9999999999910388 0.9999940605831824 0.9999667587615828 0.9998702441917365 0.9996767320736446 0.9996444620481771 0.9996272472198986 0.9995731300648336 0.9982143831293266 0.9877694524700094 0.9515011096435655 0.8736099498756134 0.7524312147662087 0.6038993465031776 0.4537940267645272 0.3309274447336216 0.2713249200681566 0.27671403992136984 0.32182121617447057 0.3853017211664134 0.4558896950145247 0.5278376062847404 0.5983182015281793 0.6612469367356985 0.7079410329472668 0.7286635518189875 0.7361059320724896 0.7294327942096005 0.7168154711732395 0.70065224756851 0.68228044719941 0.6625762988138795 0.6426831568033788 0.6244550349050709 0.6117516939698828 0.6082398069237751 0.6066235269560929 0.5824481843568728 0.5038089605599582 0.3248457686775806 7.4600325814017436e-06 0.9999999997323163 0.9997691541623341 0.9988324635932395 0.9977002594948693 0.9963333375104785 0.9943931253540494 0.9909359578823773 0.9834011038420984 0.958202710301705 0.9022588858559106 0.806787324433619 0.6769564180232633 0.5312670376154658 0.39272044130172695 0.2784010805598721 0.19442471761237073 0.14075326409039932 0.11500349983303282 0.11228758826543678 0.1269077127160922 0.15438063382537923 0.1916811879152718 0.2358019521125482 0.282025905993975 0.32061071599049584 0.3475036044071942 0.3577111180501066 0.35719122289691646 0.34917427660704875 0.33764342816875115 0.32458611767332624 0.3114331276890949 0.2997664102767673 0.292282650924584 0.29335159084543805 0.31073746960111304 0.3432758981990592 0.41018709236165535 0.4353791129764543 0.3394772789995744 7.388553232095075e-06 0.9999998377776802 0.8290560775370002 0.004963857125559611 0.003988408302777799 0.0045517887611627615 0.004528189449841511 0.004321664833232356 0.0038619106844651994 0.003236818813272049 0.002561742086481937 0.001914510296705789 0.0013513183584325426 0.0009044648995663188 0.0005805057532670898 0.0003643921061240989 0.00023018071594698656 0.00015702828135284177 0.00013267994642832123 0.00014675552489387756 0.00019017836214372315 0.000257187911110457 0.00034491301584095607 0.00044930416985931914 0.0005588309886454397 0.0006434517272373613 0.0006893278249164183 0.0006852120317557207 0.0006505964509358573 0.0005980659438190017 0.0005397982969207768 0.0004815277469611236 0.00042660599602971323 0.00037748972382464655 0.0003373303377235743 0.0003094183004782568 0.0003007950292232371 0.0002915704333626609 0.0003674495639481825 0.42907248601000075 0.35253401139202756 7.347448426273472e-06 0.9999996958924091 0.8368589996121855 0.0012957180252056526 0.0001312135249478992 0.00013086928495416645 0.00012892045640785534 0.00012535199118466676 0.00012044179829144068 0.00011486054502040138 0.00010915757318936134 0.00010361555822573463 9.838441665233656e-05 9.354215126745084e-05 8.911756646263008e-05 8.50890676260027e-05 8.13815075743145e-05 7.791546601568263e-05 7.461160583834017e-05 7.141049635598937e-05 6.827160179570299e-05 6.516897165973781e-05 6.208143406557368e-05 5.897301429217167e-05 5.5765824481227233e-05 5.230140659507414e-05 4.8373818481548656e-05 4.371112055359449e-05 3.794598857128906e-05 3.0558018660883095e-05 2.0945693473855685e-05 9.196181003167805e-06 4.794897593593348e-07 1.2243243810166246e-06 2.53080458016005e-06 4.002950633023027e-06 5.376711395327753e-06 6.518047013224331e-06 1.704875868593039e-05 0.4214639920262967 0.3317917522482301 7.29474847585969e-06 0.9999995512399427 0.8516867121645155 0.8516560606817054 0.8516024208164295 0.851512188328691 0.8513896778963747 0.851233815956721 0.8510454560893043 0.850825225523005 0.8505743304713848 0.8502949812917537 0.8499910164251947 0.8496679595206228 0.8493317829749564 0.8489862659443626 0.848629478806712 0.8482551318978723 0.8478511404363995 0.8474013058732734 0.8468829888476604 0.8462620139662563 0.8454833202252846 0.8444521201766385 0.8429919179884052 0.8407395414596205 0.8368514179723794 0.8292070499364206 0.811812513499194 0.7672764701401065 0.6484458343995658 0.3636621764568002 0.005816528550686575 0.0667751300853086 0.1473425097813321 0.2194813561662269 0.27498619966551047 0.3148400253170092 0.3420933798283784 0.3594679533955635 0.28914640031853917 7.197956203654611e-06 0.999999428272665 0.8964134094510178 0.8694558808325773 0.8645587637243065 0.8617230739904647 0.8599878195045291 0.8587882804592192 0.8579177409608513 0.8572689322710864 0.8567920147864764 0.856470335976715 0.8563123767505912 0.8563182463618568 0.8564778181011107 0.85661949935495 0.8556701363310619 0.854374568743328 0.8532997391917512 0.8525370498755137 0.8519080003033831 0.851234976607777 0.8503229979441842 0.849045613245209 0.8471870650747771 0.8443410516739458 0.8397780940434252 0.8312517009648971 0.8129844309334694 0.7673089824426589 0.6474795948062457 0.36501887930567617 0.0045942538376219635 0.06077369711324519 0.13543208096179424 0.20096108378307959 0.2487084904784769 0.2785414436784683 0.2928510068998081 0.2813652957370269 0.20884481450539813 6.994990793601846e-06 0.9999992990514954 0.9198760131894702 0.8907560945134019 0.8783339098694675 0.8725435215836407 0.8689535971549642 0.8665536348904797 0.8648563644930802 0.863636533264048 0.8627812635073242 0.8622468195847354 0.8620339636951921 0.8621804618278647 0.8626652083300593 0.8620733335694281 0.8432529194148096 0.827180275484108 0.8198905772211587 0.816027901769324 0.8139811322092467 0.812626321152572 0.8112833964527171 0.8101187481423767 0.8098320862278313 0.810958781526435 0.8135237862006536 0.8121675282632463 0.8000831744632304 0.7581620242822176 0.6408113724583369 0.3669312002210331 0.0023980961308902133 0.051875245399708995 0.12011499071840076 0.18013397361896158 0.2223486238232095 0.24622193722942165 0.25134302200313424 0.23041663953428812 0.1610798549319928 6.677367919393986e-06 0.9999991614294916 0.9365485182985922 0.9066723623813269 0.8916508719894689 0.8831792872143579 0.8779289019378402 0.8743676781397847 0.8718456353843003 0.8700306567403464 0.868756864522102 0.867954701939785 0.8676402105440926 0.8678306660215789 0.8684968808039509 0.8609141670374422 0.6849845762104514 0.6427075511970232 0.6242817698335731 0.6162794705563124 0.6124047558667218 0.6104824983817516 0.6093713486284775 0.6104170619739882 0.6145351369780593 0.6401987719239851 0.6699047327952737 0.7305268165004196 0.7519155191730468 0.7297883509002491 0.6242508150333925 0.3673081231071273 0.017621453581547864 0.04121106116530797 0.10260081499651781 0.15794342271563322 0.19652655284408507 0.21659943550649408 0.21735116225574486 0.19314471279400092 0.12929472465783712 6.2511666745675e-06 0.999999017561871 0.947954536683521 0.9195799252570076 0.9032200162918478 0.893195477198107 0.8866106549941422 0.8820450516662239 0.878757746178934 0.8763581176319482 0.874638567769173 0.8735101969505256 0.8729660557085377 0.8731013628621455 0.8729112381126968 0.8410751249266273 0.0005864835456117345 5.23381543225622e-05 4.8671639242057524e-05 4.592529885403452e-05 6.434593999545071e-05 8.034784754567165e-05 9.425109194926156e-05 0.00011124930206734406 0.0001227174253810671 0.0002638959991768154 0.6662852898888613 0.6942358992764919 0.7172208151684687 0.6996430187579656 0.6018643394885692 0.3660395241556375 0.04385743395271371 0.02988795044006893 0.08394725800435522 0.13522079057577827 0.17152488401639918 0.18990062311965403 0.18917730652330525 0.1651441267698411 0.10772964542186667 5.7536454244263895e-06 0.9999988685904375 0.9563538858724207 0.9299263672205799 0.9132977681188065 0.9023599513122694 0.8948388009107466 0.8894559300524455 0.8854912021434753 0.8825303801834816 0.8803400200782071 0.8788026482516692 0.8778963086905521 0.8775678689450235 0.8753469022277911 0.8137867277400859 0.0003035013645616212 6.315335624908619e-08 2.0582625303186215e-09 1.944805209561644e-09 3.806197278712245e-09 5.819240039937858e-09 7.98835914698151e-09 1.0704783277462903e-08 1.4908730725685225e-08 3.127272774202349e-05 0.6584661061264334 0.6784674079354983 0.6899209325349629 0.6688316672714292 0.5756178290161024 0.36328997270349445 0.07583616926875243 0.02261312783242516 0.06508115873903114 0.11253657607596095 0.14758950728073597 0.1657788330764494 0.1655110304454465 0.14344594196935956 0.09221021690091473 5.2225482302091504e-06 0.9999987155393223 0.9627677296123585 0.9384306194336189 0.92206073695236 0.9106988301118072 0.9025529956645302 0.8965373661896617 0.8919871151972144 0.8884933598372335 0.8858059740311028 0.8837790505414579 0.8823209236924003 0.8811566010277664 0.8750999151947166 0.7870287094688815 0.0002596685243516368 4.7044739422632365e-08 5.878684490867088e-12 6.936343319871863e-14 1.6654906261302998e-13 2.979538212493362e-13 4.619342831125394e-13 7.024775112818042e-13 7.358406489107578e-10 2.7938600171967645e-05 0.6447660850687643 0.6584569946211909 0.6617081516044092 0.6347269641017582 0.5458244406630999 0.3595804694992704 0.11019591431523465 0.02600014589137548 0.04796290319286136 0.09031109719799624 0.12474830910228878 0.1438500317711475 0.14529771351408718 0.12615647688230683 0.08064563682671229 4.692375615584177e-06 0.9999985590303827 0.9678577001734422 0.9455620664434656 0.9297622062978319 0.9182985757668115 0.9097747961942224 0.9032843026251326 0.8982352793829416 0.8942379121017786 0.8910332342827609 0.8884420982425819 0.8862839120752697 0.8838048219797329 0.8725165197933683 0.759394561881662 0.00022237537722060157 3.83002025989451e-08 4.6275930525905174e-12 4.3362915565713737e-16 6.083674522893298e-18 1.195093960853042e-17 2.025553725682333e-17 1.0840372732318032e-14 5.880733010146666e-10 2.415897934910579e-05 0.6219413553152712 0.6298447027287566 0.6257411207333143 0.5945632338594589 0.5126733734767536 0.3547825641370217 0.1444379231346589 0.040197809381597276 0.03679978924021298 0.06917895065266479 0.10234504856950205 0.12331999253142412 0.1276488410425343 0.11212368237622297 0.07182358578684583 4.188827998049271e-06 0.9999983968806475 0.9720319079223403 0.9516809771369367 0.9366270038839768 0.9252863784941645 0.9165732565519316 0.9097412671197154 0.9042727256299741 0.8998039171000315 0.8960709104035584 0.8928585381567886 0.8898582554246293 0.8856612552270793 0.8681542468303715 0.7342621661800192 0.00019977492634546144 3.289150650452426e-08 3.889315676539039e-12 3.591597156178335e-16 2.7645127670891214e-20 4.0152000481585823e-22 1.0874225928096213e-19 7.629138172091684e-15 4.454083453120225e-10 1.9986753266143252e-05 0.5843880782094822 0.5868302028026045 0.5775644678780928 0.5459202294308464 0.47529611568839947 0.34762415446588135 0.17600249094043124 0.063477394339362 0.034691997932844686 0.051964736959714826 0.08089744844229524 0.10320638210707271 0.11091470529990863 0.09959151633397806 0.06447375828423144 3.727262107622964e-06 0.99999809612447 0.9755635534566085 0.9570562763746641 0.9428568070414344 0.9318012910342108 0.9230490731249269 0.9159902781769104 0.9101772339281983 0.905272974611036 0.9010083623190284 0.8971198235530999 0.8931201032216297 0.8868369903530158 0.8629846205671361 0.7126869872039612 0.0001833042120625446 2.9081046142468284e-08 3.347902662236521e-12 3.029310155707247e-16 2.2765554186280324e-20 3.0788264433502434e-24 6.539931391487069e-20 4.934553925958619e-15 3.117670751526412e-10 1.5462528377871674e-05 0.5233329613249573 0.5217823817780763 0.5115211712588926 0.485176454644213 0.4308841070654966 0.33490343826391655 0.20147715051307685 0.09226543367974054 0.04291801974383494 0.04164089542953739 0.06224823402664934 0.08404658442331576 0.09500260062933588 0.08825132462050858 0.05827920828581823 3.3159316887801716e-06 0.9999941136874029 0.9786369692208825 0.9618902043046132 0.9486218127499937 0.9379779042204915 0.9293113751001947 0.9221266720715824 0.9160369010719385 0.9107272367405158 0.9059140655482366 0.901263870145291 0.8960763673706359 0.8874863884800744 0.8581109546053377 0.6969016461514637 0.00017259917045275605 2.6627271016841706e-08 2.979230549521572e-12 2.619552891945885e-16 1.096244858988192e-19 7.243056393178783e-20 9.147733443625578e-20 2.758958384611331e-15 1.9071107162245053e-10 1.0611443222351557e-05 0.4251489901419642 0.4234022970648989 0.4190438738965721 0.4056510197423287 0.37340977723109736 0.31079107358860486 0.21567375391260193 0.1207923421204351 0.059994010482584126 0.040318810991282386 0.04867911456975042 0.06684850235947824 0.07996324079093069 0.07785670523150583 0.05305797265106329 2.957763981196188e-06 0.9999318218805286 0.9813284301185697 0.9662791954360977 0.9539974083839695 0.9438606074860174 0.9353715623120892 0.928125775029819 0.9217836048207588 0.9160415808879001 0.9105924239012044 0.9050308947155619 0.8984898838796602 0.8877326105008239 0.8547408274320188 0.690369490983416 0.00017033793906120893 2.5716788689196732e-08 2.8086868832550978e-12 8.235435491463567e-15 6.6635077240258046e-15 5.508248523257369e-15 4.522375233208681e-15 4.8077506057382886e-15 8.583632462111487e-11 5.479150660090817e-06 0.26813813034375833 0.2737547302694729 0.2861757504664196 0.29573783029299366 0.2925119061109466 0.2660346652018132 0.21066337663509016 0.14046061288412812 0.08066625304961995 0.04776810513628931 0.04219921391744338 0.05313120331987303 0.06617192495647724 0.06821705994249247 0.048640682624278495 2.6520924503599372e-06 0.9992847303633184 0.9831876738524563 0.9697607526605353 0.9584613615922043 0.9488363564931656 0.9405001112168877 0.9331171081204214 0.9263858369074204 0.9200203137173762 0.9137199678514426 0.9070805174772035 0.8992460834212684 0.887120713609266 0.8541635130923277 0.6935192391135828 0.00016849106078455753 2.6471498754086304e-08 5.466612397515939e-10 4.74167761413303e-10 4.0984415325933954e-10 3.5164809954287625e-10 2.997036564809926e-10 2.539403561657599e-10 2.856503445243421e-10 3.004240439519007e-07 0.018983535761980738 0.04818979735371651 0.09337417668682974 0.14046286835926144 0.17508093271081515 0.18894024777816265 0.17592861983705865 0.13969608941806916 0.09516454359867563 0.059616620604055696 0.04300835515788359 0.0444453152007356 0.0544317161199707 0.05929482315401671 0.0448645982756167 2.3960461147748007e-06 0.9947391915476871 0.9808947352154668 0.9688953410537013 0.9583699537437269 0.9489907149317969 0.940465827770999 0.9325374171922746 0.9249829081508737 0.9176142855116898 0.9102629869015223 0.9027009899692893 0.8943359285952042 0.8827345376484614 0.8547757601314502 0.7256492816276274 0.00027859608446806567 2.6200102254173804e-05 2.401666031713867e-05 2.1856500740697427e-05 1.9744139165799316e-05 1.7714771274820025e-05 1.5791000061913946e-05 1.3991612959317386e-05 1.622188426976651e-05 2.3839044895962395e-05 0.2894616943799858 0.24181604985177482 0.17187026645680503 0.13227822891948773 0.12275615226347943 0.12749811339027503 0.12967004636885385 0.1189774183548112 0.09563309935412935 0.06839927373426227 0.048152772312999394 0.04124558021391529 0.045759470926709275 0.05131389606873434 0.041597594421958005 2.1856889163357733e-06 0.972503029785547 0.9605646762655755 0.949554920092268 0.9392472181130039 0.9294495215532527 0.9200185065864491 0.9108769202132067 0.9020294069555398 0.8935760751838798 0.8856837986709842 0.8785096772970923 0.8718236533065361 0.8643445392907677 0.8471348037398363 0.7531918751596328 0.7414318460383966 0.7235840677185716 0.7016546477487894 0.6764797588316588 0.6484074021156834 0.6177430313988217 0.5848264415094713 0.5501378671645841 0.5144222398209913 0.47937411602284274 0.4277761950396144 0.3477480179070167 0.2886771118556846 0.22181963344501882 0.16771715923840827 0.13373581302040505 0.11552688121663023 0.1033747723785861 0.08935437729391724 0.07149400600425747 0.05373136371391248 0.042375444328022774 0.04087925704697238 0.04477565822665881 0.03878139919710815 2.0169118898238344e-06 0.8958881395451643 0.8855565293239678 0.8751197151972702 0.8645361940854542 0.8538512604879684 0.8432130776615988 0.8329122325417427 0.8233786432092166 0.8151835747432963 0.8089731817788718 0.805288664936841 0.8044461216520613 0.8050965568811695 0.8039887981205259 0.7714359350544063 0.7465290985260004 0.725621144045963 0.701082198326924 0.6734667726221766 0.6429208627540486