# vtk DataFile Version 3.0
vtk output
ASCII
DATASET RECTILINEAR_GRID
DIMENSIONS 41 41 1
X_COORDINATES 41 double
0 1 2 3 4 5 6 7 8 9 10 11 12 13 14 15 16 17 18 19 20 21 22 23 24 25 26 27 28 29 30 31 32 33 34 35 36 37 38 39 40 
Y_COORDINATES 41 double
0 1 2 3 4 5 6 7 8 9 10 11 12 13 14 15 16 17 18 19 20 21 22 23 24 25 26 27 28 29 30 31 32 33 34 35 36 37 38 39 40 
Z_COORDINATES 1 double
0
POINT_DATA 1681
FIELD FieldData 1
Concentracao 1 1681 double
1.0 1.0 1.0 1.0 1.0 0.9999999999999998 0.9999999999999998 1.0 1.0 1.0 0.9999999999999998 0.9999999999999996 0.9999999999999994 0.9999999999999993 0.9999999999999992 0.9999999999999991 0.9999999999999991 0.9999999999999991 0.9999999999999989 0.9999999999999989 0.9999999999999987 0.9999999999999983 0.9999999999999986 0.9999999999999983 0.9999999999999978 0.9999999999835759 0.9999999999201975 0.9999999998099576 0.9999999996768008 0.9999999995439209 0.9999999994113355 0.9999999992791523 0.999999999147619 0.9999999990170948 0.9999999988870194 0.9999999987439937 0.9999999981505425 0.9999999580833383 0.9999910069510431 0.9967764448756183 0.00015730739918937963 1.0 0.9999999999999998 1.0 1.0 1.0 0.9999999999999997 0.9999999999999996 0.9999999999999989 0.9999999999999989 0.9999999999999987 0.9999999999999982 0.9999999999999977 0.9999999999999976 0.9999999999999976 0.9999999999999973 0.9999999999999971 0.9999999999999971 0.9999999999999973 0.9999999999999969 0.9999999999999966 0.9999999999999962 0.9999999999999967 0.9999999999999964 0.9999999999999947 0.9999999999582692 0.999996601433843 0.9999867462642726 0.9999767209803253 0.999971715894413 0.9999717498980821 0.9999719566717699 0.9999724174624448 0.9999732799609308 0.9999747465667439 0.9999769614834468 0.9999799868145075 0.9999835856758754 0.9999875351870722 0.9999828004910837 0.9967771007695079 0.0001573083441282988 1.0000000000000002 1.0 1.0 0.9999999999999999 0.9999999999999997 0.9999999999999996 0.9999999999999989 0.9999999999999987 0.9999999999999982 0.999999999999998 0.9999999999999976 0.9999999999999973 0.9999999999999968 0.9999999999999964 0.9999999999999958 0.9999999999999958 0.9999999999999952 0.9999999999999947 0.9999999999999948 0.9999999999999941 0.9999999999999943 0.999999999999994 0.9999999999999936 0.9999999999999619 0.9999999938856 0.9996971529838596 0.9991936599992993 0.9987859878305505 0.9986191295601013 0.9986217423519195 0.9986381455553136 0.9986741529526147 0.9987416556213036 0.9988561016837904 0.9990297689821311 0.9992402986750772 0.9994701356621544 0.9996716624607955 0.9998229423742636 0.9967178247068231 0.0001573082875063009 1.0 1.0 1.0000000000000002 0.9999999999999998 0.9999999999999998 0.9999999999968494 0.9999999999902693 0.999999999979521 0.9999999999642248 0.9999999999442293 0.999999999919813 0.9999999998919645 0.9999999998629157 0.9999999998377525 0.999999999825659 0.9999999998361256 0.999999999858287 0.9999999998852257 0.9999999999059755 0.9999999999210574 0.9999999999309167 0.9999999999361535 0.9999999999366074 0.9999999999297192 0.999999708908044 0.9905874007850687 0.9805920540990237 0.9763533257938437 0.9747032758411744 0.9747436618977454 0.975034668924378 0.9756910206237138 0.9769175359727745 0.9792043280519632 0.9828178516821077 0.9880530802907515 0.992428810116924 0.9960768160602604 0.9983456166655047 0.9962895481477464 0.00015730402001065842 1.0 1.0 0.9999999999999999 0.9999999999999999 0.999999999994266 0.9999979376502515 0.999996022366052 0.9999940996948199 0.9999921181824186 0.9999900921287566 0.9999880625981229 0.9999861010598375 0.9999843655017062 0.9999830072021089 0.999983669749946 0.9999865046805092 0.9999920089718674 0.9999949159736958 0.999996700690074 0.9999977356062651 0.9999983486921931 0.9999986997672772 0.9999988736872074 0.9999988395973832 0.9999958180455113 0.8397077698646446 0.8047371726177571 0.7900077497355634 0.7853535252970892 0.7855076531338273 0.7869549030441589 0.7902179700293736 0.7969930974271219 0.8081039101989242 0.8406154506589394 0.8746322820465039 0.9383424025670268 0.9724123680575969 0.9904787583001635 0.9945307308488385 0.00015728712020611198 1.0000000000000002 0.9999999999999998 0.9999999999999997 0.9999999999974882 0.9999982267082824 0.0029468999848675462 0.0022632840351137764 0.0021657549825566083 0.002056009188311906 0.0019558174241980208 0.0018792492414797448 0.0018321983943987024 0.0018626392180235722 0.0018385737850725784 0.003424500183013364 0.9999625187632262 0.9999761378098727 0.9999854480517871 0.9999902949713777 0.9999931910997859 0.9999949409292113 0.9999959940468081 0.9999965292004126 0.9999966967496354 0.9999817691545005 0.0018907422866520328 0.00020776408500373724 0.00022543852624538305 0.0003506400325172788 0.0004389389061655693 0.000517335955235845 0.0005925206574853337 0.0006870220809451335 0.0007583325547213942 0.001497590205278778 0.8746110581505676 0.9121883107592508 0.95561367095906 0.9824597865754915 0.9922980369075581 0.00015725835601797236 1.0000000000000002 0.9999999999999996 0.9999999999999994 0.9999999999923974 0.9999965732432075 0.0015823482555855878 3.377665359259147e-06 2.209381448105013e-06 2.039667577744375e-06 1.867150504409263e-06 1.7276133993963456e-06 1.6392298725326324e-06 1.63502175434611e-06 1.7407040454062572e-06 0.00030552883689505635 0.9999371408942088 0.9999663467701563 0.9999772779068004 0.9999840138972147 0.9999882310269789 0.9999909847718644 0.9999927673480924 0.9999938475612723 0.9999942309413503 0.9999703712168352 0.0012310102789110495 7.22955134751953e-07 3.8960579713973755e-08 8.120467113612463e-08 1.2482710224666752e-07 1.7024006718246628e-07 2.2033706670407025e-07 2.8298166456314944e-07 3.78888051459572e-07 0.0001871526362306726 0.8745913887100238 0.9071838102582848 0.9459107395543677 0.9769024103985541 0.9902452353747649 0.00015722049357890582 1.0 0.9999999999999998 0.9999999999999993 0.999999999984405 0.9999949289727792 0.001556698237017344 1.1717268125397902e-06 2.035091587748458e-09 1.3085982295144843e-09 1.1552408372370321e-09 1.0257376215738463e-09 9.32957486920636e-10 9.003319337742832e-10 4.5633601444077714e-08 0.00029889380991325327 0.9999054815759122 0.9999540523907947 0.9999696831488653 0.9999780441000883 0.9999834047461692 0.9999870375134561 0.9999895540321072 0.9999912669530523 0.9999923241959131 0.9999611736553716 0.001231071186476873 6.983025894351343e-07 2.536618912078158e-10 1.371652156699157e-11 2.4418175640600643e-11 3.752721885020656e-11 5.346518390842456e-11 7.59918532337564e-11 1.9480105221607586e-08 0.0001829641902775942 0.8745691363356722 0.9047716939474362 0.9416189139343987 0.9734404239424327 0.9885657601218968 0.0001571753956231861 1.0000000000000002 0.9999999999999994 0.9999999999999989 0.9999999999732715 0.9999932508295004 0.0015207920911146392 1.1226948021659114e-06 5.507069408673014e-10 8.21503742701282e-13 5.225332637032545e-13 4.4103451748743706e-13 3.7877452717403305e-13 4.594486635331665e-12 4.328550584699569e-08 0.00029391802025435917 0.9998713558554971 0.9999405262550639 0.9999615229859615 0.9999720860845114 0.9999786668629588 0.9999832029832799 0.9999864876398737 0.9999889249556935 0.9999907372209478 0.9999516009937996 0.0012111452299172504 7.039412880066163e-07 2.6036894162339095e-10 7.162309174745816e-14 3.752284487612453e-15 6.263036398619394e-15 9.636886502261626e-15 1.3165980934408556e-12 1.8597550491860962e-08 0.0001791451911252052 0.8745462486014782 0.9035568061552166 0.9392417786356071 0.9713961191750908 0.98713749598267 0.00015712331217055566 0.9999999999999999 0.9999999999999993 0.9999999999999986 0.9999999999588369 0.9999915347872688 0.0014445884434709025 1.026908574277801e-06 4.824952112507951e-10 1.708195947905213e-13 2.3432665301803417e-16 1.4709230585085016e-16 4.0708739533942155e-16 4.005088646025891e-12 4.155046956974496e-08 0.00028790708142354245 0.9998350901670705 0.9999252929934527 0.9999525016552964 0.999965724408463 0.9999737883807202 0.9999793559015536 0.9999834953150201 0.9999867235150861 0.999989317062531 0.9999416517479408 0.0012127775791232192 7.141214243009829e-07 2.71108401726613e-10 7.490866117279816e-14 1.6711677848578752e-17 8.560328740712977e-19 6.497341687254414e-17 1.221623206028876e-12 1.7801478137988796e-08 0.00017517220603909773 0.8745223788649644 0.9027569373526793 0.9376728251393087 0.969960530263858 0.9857848982548387 0.00015706341941756818 1.0 0.999999999999999 0.9999999999999982 0.999999999941014 0.9999897870993774 0.0013673628560697535 9.232649145877546e-07 4.1072483285291136e-10 1.361125736305263e-13 3.62883209872824e-17 7.119693093983013e-20 2.6349485356809975e-16 3.722999293071614e-12 3.954984169794251e-08 0.00028079442153614357 0.9997975350433056 0.9999078648403985 0.9999419767527602 0.9999584451692134 0.9999683672192264 0.9999752053668152 0.9999803552867181 0.9999844780255448 0.999987906634854 0.9999317510921328 0.0012233591870454432 7.307261109413483e-07 2.8229951109282645e-10 7.943616465453382e-14 1.7508248068664393e-17 8.518414740581583e-21 5.826647469786032e-17 1.1419388047371796e-12 1.6999638142905083e-08 0.00017107378109998536 0.874497343157551 0.9020005193114565 0.936183443257648 0.9685679163592055 0.9843373128682688 0.00015699431526923559 0.9999999999999999 0.9999999999999989 0.9999999999999974 0.9999999999197591 0.9999880144670102 0.001294806780318006 8.304716626820921e-07 3.462366346403524e-10 1.0619280388714489e-13 2.3130629044876377e-16 1.5898395303410498e-16 3.5450918934108585e-16 3.4100611704673487e-12 3.726272885849383e-08 0.00027241040079073844 0.9997591008995806 0.9998869937362066 0.99992879556775 0.9999493167643844 0.9999616937115826 0.9999702167833522 0.9999766655785282 0.9999818900499664 0.9999863027617308 0.9999229548935678 0.0012460257425192926 7.585594536884781e-07 2.969150512201506e-10 8.435516361469304e-14 9.020641253023832e-17 6.767736459391764e-17 1.1702368177519517e-16 1.063239344147326e-12 1.6188014910875412e-08 0.00016681938786621846 0.8744705632943831 0.9009566187676757 0.9341477105330608 0.9666559903000133 0.982639346775465 0.0001569145940248945 0.9999999999999997 0.9999999999999987 0.9999999999999972 0.9999999998950101 0.9999862385260572 0.001268916117962402 7.716803137750525e-07 3.0467884914591836e-10 3.732917038762392e-12 3.0645588430544958e-12 2.5055881458081934e-12 2.0039733853465556e-12 4.629832653954918e-12 3.462705808907795e-08 0.0002623721171812818 0.9997199163547217 0.9998604204847285 0.9999107620448352 0.9999365677165983 0.9999524116200508 0.9999633719109793 0.9999716697655867 0.9999784095848984 0.9999841621725687 0.9999172471207993 0.0013016823266198778 8.087445031432004e-07 3.219310073721157e-10 1.5194024602006091e-12 1.370105436472319e-12 1.3128115618972491e-12 1.2568410260684545e-12 2.1854226524233703e-12 1.5347761413971107e-08 0.00016228574638003338 0.8744407242017282 0.8991472657149657 0.930786317227999 0.9634815821757873 0.9804964204345328 0.00015682350285529248 0.9999999999999997 0.9999999999999801 0.9999999999964083 0.9999999992371066 0.9996382532347854 0.0011745606006120554 7.766026276062425e-07 4.311238020407302e-08 3.893527204238246e-08 3.4505784338286293e-08 2.9983366044445005e-08 2.56134949058486e-08 2.1505798877567253e-08 4.9140645012122874e-08 0.00024979910416359055 0.9996793646339055 0.9998242653796106 0.9998836429398564 0.9999166490875875 0.9999377389103998 0.9999525551466467 0.9999637741758702 0.999972860585722 0.999980624251212 0.9999155003920116 0.0013292457019836667 8.959966757695149e-07 2.147753608340705e-08 2.055520718364384e-08 1.9976966221547304e-08 1.9402388210415387e-08 1.8832185107012064e-08 1.8265055075337548e-08 3.210721688914749e-08 0.00015712333073280676 0.874404610880415 0.8959564876737864 0.924846361479271 0.9579637155880183 0.9775546775267008 0.0001567214847624753 0.9999999999999996 0.9999999999352968 0.9999999960450492 0.9999997890347816 0.9996540700820976 0.0025083575111849794 0.0003035800210411538 0.00029225018496390907 0.0002781914272829055 0.00026126072760321696 0.00024264659489478313 0.00022308405780266038 0.00020285561384019015 0.00018182113343718248 0.0003906234896398899 0.9996324951720719 0.9997650576381731 0.9998356431638946 0.9998798585505043 0.9999100437463809 0.9999319041459832 0.9999486248291835 0.9999619163789492 0.9999733799024552 0.9999250491041927 0.002142881559234457 0.00020744465735633472 0.00020345461794035738 0.00020058029929361824 0.00019765927182239146 0.000194711187117466 0.00019173997135677506 0.00018873275746822372 0.00018566304535529051 0.0003318916158833031 0.8743441369940335 0.889010587106058 0.9148323587453209 0.9486371019187065 0.9731431500380356 0.00015661021717876145 0.9999999999999731 0.9999999845386363 0.9999996343668177 0.9999937106529835 0.9996652933374477 0.9996351516055918 0.9995857252846496 0.9995081065515867 0.9994147669827932 0.9993151600757749 0.9992124213367826 0.9990612211892476 0.998622264836336 0.9970332240220232 0.9913142681746477 0.9863210325280611 0.9903947910684389 0.9934823934381033 0.9956695335691647 0.9971569296393352 0.9981707728943787 0.9988559588744237 0.9993260869068384 0.9995996700056295 0.9998111223982721 0.9997844025784871 0.9997604896949851 0.999734800043926 0.9997087552135784 0.9996817139677321 0.9996533928213136 0.9996233956518736 0.9995913354979712 0.9995560051484537 0.9995198609825614 0.9989784870401835 0.9432892567972475 0.9264435692672868 0.9422660109997336 0.9673607501381969 0.00015649568912588205 0.9999999999990913 0.9999994411672649 0.9999932738667106 0.9999550712736803 0.9996891698569521 0.9996464453725074 0.9996233184728941 0.9995897114314759 0.9995585147773798 0.9995337022120001 0.9995074858976004 0.9994105685807136 0.9989492218036063 0.9972097422609811 0.9916356500007387 0.981684976432186 0.976411591461391 0.976751068313299 0.9795989955329295 0.9832574735057676 0.9869104869953564 0.9902280106863163 0.9929628140502536 0.9952782873002933 0.996589252119825 0.9974921894036488 0.9975603945001682 0.9975016406095844 0.9973799214046779 0.9972285340478524 0.9970607353378079 0.9968869916542952 0.9967211412280964 0.9965977672336894 0.9965533028068674 0.996779641341915 0.9791848768382819 0.952015631182931 0.9457981952452595 0.962667352140649 0.000156391133551836 0.9999999999910467 0.9999940654373329 0.9999667846812513 0.9998703409599429 0.9996769709596681 0.9996447770558942 0.9996277421915443 0.9996096905491325 0.9995950871467647 0.9995837069130463 0.999547795055612 0.9993429178218912 0.998496820088437 0.995935542560914 0.9898980949529114 0.9790276374513843 0.9666430275506452 0.9574880419255333 0.9530706577499398 0.9527650240155164 0.9554793307783134 0.9601166239663648 0.9657767986146548 0.9713115687070855 0.9759214118181954 0.9781740219760144 0.9792450945752667 0.9789218614418705 0.9780575926920441 0.9769070165168044 0.9756271435374504 0.974337088975814 0.9732145130336876 0.972576371643504 0.9731340723531285 0.9757451208022554 0.9759980235234738 0.9656684014066196 0.953058949599626 0.9598627487761532 0.00015630724762691342 0.9999999999540943 0.9999665816479105 0.9998501245640438 0.9997292651714725 0.9996308019712817 0.9996026528826069 0.9995756540252072 0.9995349979084505 0.999425319057217 0.9991084380604408 0.9982003626498949 0.9958585936377093 0.9906530851927693 0.9809013043383289 0.9657120563126413 0.9459515053942017 0.9243625047092983 0.9043021015484257 0.8881895940729464 0.8770855599848941 0.8711363015402426 0.8699518677849148 0.8725722664229139 0.8773857904882284 0.8817244273962106 0.8843886328809321 0.8836710146166116 0.8806373702722975 0.8757860793314501 0.8700065076997525 0.8637971230121908 0.8576056371046596 0.8520583106866426 0.8483691589955231 0.8486404677386076 0.8565079551790515 0.8713634011558197 0.9000967694882943 0.9181339207828874 0.9502235015339829 0.00015623275574232063 0.9999998390837578 0.8301856156975661 0.010572807645546384 0.008760689593561823 0.01028585492145118 0.010609025101605836 0.010702996228436836 0.010445838412232839 0.009964186486912871 0.009359147342377683 0.00868319534338287 0.007965515251619723 0.007232321492661044 0.006515633745654348 0.0058522841726382675 0.005278610914560996 0.004834681547428562 0.0045563476851006555 0.004450129062582241 0.0044984905886452315 0.004676673107666541 0.004960198302082218 0.005315692182333708 0.005688318039762305 0.005979408028507031 0.006143316927113372 0.006136677415444992 0.006013843196276591 0.0058111635797025015 0.005566894674601316 0.005300375787665589 0.005024543617780095 0.004750015476214778 0.004494001410464674 0.004272456197224003 0.004139742717158163 0.003895167822876145 0.004627266476050675 0.9175143961615296 0.942166548264729 0.0001561625425186043 0.9999996981570127 0.8379413658074579 0.002714221898232719 0.0002992614157830466 0.0003069046553733098 0.0003098400795567003 0.0003082247110599328 0.0003027103622989897 0.000294602762897207 0.0002852789544531455 0.0002754987524475912 0.0002657610319832617 0.00025644477873806615 0.0002478631397424021 0.00024022582953188806 0.00023360071953271752 0.00022804346878107826 0.00022360417576857067 0.00022022320681403654 0.00021775329935615542 0.00021603876692834312 0.00021493228350790444 0.00021421422568577357 0.00021346973417142487 0.0002118856936722464 0.0002089284647341537 0.0002040247957858187 0.0001970832572044479 0.00018748735467011973 0.00017327190583848128 0.0001444599961122344 4.6244378221823184e-05 0.00010213704605017566 0.00011717137274358935 0.0001243646533684683 0.0001285838231105517 0.00013086644675907206 0.00026615454133816863 0.9167846921952609 0.9067607484002536 0.00015606641592823438 0.9999995544932933 0.8526742914937667 0.8526481069047984 0.8526031828528637 0.8525266685852895 0.8524235461637556 0.8522939968817169 0.8521404964661888 0.8519657223947346 0.8517732322267975 0.8515675931179825 0.8513544741411343 0.8511401511714849 0.850930241498221 0.8507280949151473 0.8505334921459472 0.8503445679941491 0.8501581792887125 0.8499719239884523 0.84978426125638 0.8495942498713597 0.8494010107174039 0.8492029495007317 0.8489967826243368 0.8487762903574687 0.8485303975224481 0.8482427309673007 0.8478844953036261 0.8474021750965015 0.8466407324066588 0.8397874269996608 0.40977333342449546 0.8189947953801955 0.8462467574732043 0.8564670430539636 0.8622326871565159 0.8658415469995564 0.8681491645178262 0.8697555399846755 0.8109692119601604 0.00015586210715149337 0.9999994323874188 0.8971064777461312 0.8703337331852102 0.8654774007127494 0.8626738157684564 0.860968920289169 0.8598030987004136 0.8589726523704805 0.8583731445872771 0.8579575388176321 0.8577118725060134 0.857646735665438 0.8577640679055185 0.8580577669574243 0.8584527885317441 0.8578478167719851 0.8569280557644797 0.8562543466611768 0.8559289434983368 0.8558132348581462 0.8557805127697612 0.8557090812601963 0.855563485745284 0.8552764241150916 0.8547527493956395 0.8540043817579988 0.8530013904553726 0.8518960372632656 0.8506604196369212 0.8491700610157916 0.8416552564252902 0.39254860589331686 0.8094519389252054 0.8288772934580007 0.8293987075348817 0.823313902094354 0.8112631685762729 0.7922191924436204 0.7475322645205853 0.600729835128265 0.00015536265261252322 0.9999993041011208 0.9204162586011018 0.891497331176961 0.879167249397875 0.8734290409497621 0.8698824006317901 0.8675248708569342 0.865874280092759 0.8647092045173124 0.8639204059065088 0.8634677909590293 0.8633557239312498 0.8636281288312931 0.8643099501614795 0.8653469260246719 0.8477557199470402 0.832786727476481 0.826479851044819 0.823670392768634 0.8228252433976653 0.8228894040304616 0.8232399359922599 0.8240717165534833 0.8259957276174995 0.8295004805750416 0.835190040749946 0.8401123125144349 0.8443625026789187 0.8469740905898898 0.8480406837470166 0.8421030192672454 0.3564560386860827 0.7996774161914091 0.813777749535471 0.8068087936241485 0.7915298960532126 0.7678328160227246 0.7304481115378102 0.6562954458187827 0.48372731367092786 0.00015452731240569 0.9999991675233544 0.9369811828156195 0.90731353597837 0.8924033885929044 0.8840033544578271 0.8788086403328849 0.8752991854420825 0.8728314596963602 0.8710783570286592 0.8698788124564055 0.8691687449061446 0.8689712433228625 0.8693234946605447 0.8704607893127768 0.872314777526722 0.6952062900100497 0.6534846849575053 0.6361561804781755 0.6296730258412936 0.6276889814715919 0.6280320919048616 0.6295352495014562 0.633521774455509 0.6408275546469772 0.6687436428018745 0.7003157926779884 0.7651317351374908 0.8025188268092593 0.8263946731830404 0.8396404375286688 0.8403052442691287 0.35801132011446224 0.7901030466659001 0.8016393877874699 0.7892449092963618 0.7671235492439205 0.734387029267166 0.6833264170910254 0.5928109586011088 0.41085704129583733 0.00015333433086072205 0.9999990248215369 0.9483150513131333 0.9201419899883633 0.9039049778155239 0.8939647069704162 0.8874468178004548 0.8829423906581693 0.8797180393258975 0.8773892461843059 0.8757548314058087 0.8747343186497164 0.87433513000893 0.8747086147025656 0.8757389348984645 0.8788024247713884 0.0018813821675713396 0.0001571215872448199 0.00015004120939650088 0.0001462348536410179 0.00021210326595708638 0.0002748391645156842 0.0003352190928651882 0.000412001564208511 0.00047349355026416877 0.0010643392687855542 0.700279566456625 0.7340833229728984 0.7759432767171145 0.807235024166671 0.8292466555713816 0.8368326844115241 0.3890359549275649 0.7803576464703329 0.7925237772041286 0.7766679285490761 0.7497763593919059 0.7105579968035994 0.65086255481914 0.550917317036914 0.36796375934161424 0.00015184641515470136 0.9999988771709675 0.956662798049713 0.9304276194523593 0.9139271392395872 0.903083003438516 0.8956385294314344 0.8903263667475212 0.8864343647008887 0.8835555343031753 0.8814649268494887 0.8800580076067805 0.8793403481315225 0.8793882149067995 0.8803645779964812 0.8822304998772713 0.0011371017787783115 7.05453808407449e-07 1.8158582950852637e-08 1.7976522823668214e-08 3.7324737549377765e-08 6.075330186994108e-08 8.903194848859647e-08 1.2761665639429105e-07 1.937078196922934e-07 0.00014251883912184772 0.7002267004803446 0.7274591982172539 0.7607112687668978 0.7930140192345784 0.819064604512782 0.8321108174790903 0.4391567005245628 0.755588385566204 0.7861175221757636 0.7686973227654856 0.7389126286366269 0.6956689250764161 0.6307771226172324 0.525912006810616 0.34344668022691827 0.0001501398378713491 0.9999987256521689 0.9630390450051574 0.9388849980398759 0.9226459412490332 0.9113850219939438 0.9033249044261341 0.8973899597107302 0.8929237223437481 0.889525806657119 0.8869572518631476 0.885091555276091 0.883889520852877 0.8833998881152476 0.8836571078255557 0.8840957443364321 0.0010979313935947429 6.343987014947729e-07 2.3238839174562817e-10 1.8311904853952138e-12 4.642327420298883e-12 9.032758275085875e-12 1.527966553038739e-11 2.584445786990849e-11 1.4018177151124335e-08 0.0001385622578672599 0.7001544773853159 0.7233724081876021 0.7520780859305384 0.7820434725975849 0.809336906787504 0.8261922312051251 0.5004043111091139 0.7155182634903948 0.7769577694954977 0.7647670571425159 0.7338048098343106 0.6885780577668102 0.6211041967088712 0.5138434829329344 0.3318691700115908 0.00014830248089711155 0.9999985710068804 0.9681013409962415 0.9459810153481405 0.930313923026109 0.9189579279659108 0.9105290118325627 0.9041302484874464 0.8991786165772144 0.8952942855873673 0.8922328765530947 0.8898445643430312 0.8880501438994269 0.8868202509600935 0.8861196792964201 0.8852744001252131 0.0010459572741429119 6.019679059353331e-07 2.2192462240455148e-10 5.973698520452641e-14 4.763641400216221e-16 1.014836481494864e-15 1.9411030785141313e-15 8.778511970155543e-13 1.3163370463573408e-08 0.0001343078632913905 0.7000614648271507 0.7203235318289175 0.7452663680106705 0.7725700230258502 0.799414765843552 0.8188083652368464 0.5657330937137177 0.6795351185778064 0.7580039454466747 0.760559998803948 0.7325792090828962 0.6875595828115331 0.6198746127930205 0.5122708507626473 0.33019204655555257 0.00014641836848184608 0.9999984137986998 0.9722555525972322 0.9520744773040869 0.9371558406662716 0.9259300203174952 0.9173219939764534 0.9105946958430902 0.9052398869164017 0.9009057592225092 0.8973480128968038 0.8943988147661889 0.8919453500234211 0.889913044115391 0.8882341207568876 0.8861892708682885 0.0010248143486679205 5.839292296998918e-07 2.1651081937750835e-10 5.889563175041348e-14 1.2719479115383888e-17 9.591908224110497e-20 3.875514297700998e-17 7.871121356563484e-13 1.2240236246442644e-08 0.0001293118696227327 0.6999368938575805 0.7174208490693911 0.7388442690326242 0.7631171753955567 0.7885419480389387 0.8094687648021084 0.6281222019495413 0.6600678905573539 0.7321536852338043 0.7520603671281048 0.7325838525189553 0.6900766706424049 0.6232798844342026 0.5161165098486633 0.3336196947869783 0.00014455431328433643 0.9999982544621802 0.9757739260773876 0.9574341471610395 0.9433744924629449 0.9324428428379553 0.923808441131311 0.9168708408415103 0.9111930883976606 0.9064536135721274 0.9024129744037639 0.8988909198871158 0.8957513879370284 0.8928960047746705 0.8902552577227714 0.8870735956057016 0.0010130744806874006 5.734170288969313e-07 2.1207563907589594e-10 5.769288002144166e-14 1.2432152221268772e-17 4.9730206540505146e-21 3.260646992950138e-17 6.905216317866714e-13 1.117480660164565e-08 0.00012326388681174134 0.6997537547069665 0.714232118597579 0.7319640325751593 0.752817378710798 0.7760494834266114 0.797593907102503 0.6808326899448266 0.6609933894942495 0.7077896924947146 0.7378588129689507 0.7309608682653961 0.6946825205608685 0.6305426138019508 0.5246151648998483 0.3412665709645518 0.0001427665677455715 0.9999980933399404 0.9788445378617733 0.9622676911114707 0.9491480461381341 0.9386423717943994 0.9301136283098156 0.9230773008952966 0.9171611693221339 0.9120747893507468 0.907586335301662 0.9035071764382058 0.8996830497303917 0.8959953778256535 0.8923777852549627 0.8880504298988711 0.0010114787068143134 5.712289712207717e-07 2.097190188837098e-10 5.648169343171786e-14 5.346382543216804e-17 3.874235000581487e-17 6.215973647413106e-17 5.78071746066763e-13 9.859565374296551e-09 0.00011528474249731544 0.6994172766480176 0.7103785420255365 0.7240565571075277 0.7410810923836759 0.7614530450831231 0.7826492720036258 0.7184193356880336 0.6778619273362366 0.693532392370404 0.7210924648287546 0.7256610733156976 0.6992850645713463 0.6406273611198705 0.5372997590897345 0.3529952742546487 0.00014110117961679627 0.9999979307056012 0.9816024306807294 0.966738460261985 0.9546315296559638 0.9446713654073094 0.9363744905205181 0.9293541407250303 0.9232966272000402 0.9179418802024547 0.9130681530627079 0.9084813274622621 0.9040072647159858 0.8994967826929412 0.8948417660853811 0.8893039081282447 0.0010343849438483263 5.83322848854093e-07 2.1300623303133227e-10 9.778311757308851e-13 8.759321085866832e-13 8.310536223535253e-13 7.877765873123288e-13 1.1729575675390531e-12 7.909076084428065e-09 0.00010192161233125812 0.6978990608135494 0.7046732758435624 0.7141167510574993 0.7271594891248886 0.7442830132541566 0.7642029915582245 0.737909146319343 0.7005102741897407 0.6927760346465329 0.707787551315955 0.7173497872545305 0.7019478341536681 0.6520626461054607 0.5536399114448133 0.3688781846639277 0.00013959458227653018 0.9999977665739284 0.9841460618745109 0.9709750687855202 0.9599590146168963 0.9506646540983839 0.9427309743869895 0.9358536221509013 0.9297714990077418 0.9242544329318738 0.9190937420831338 0.9140916118209829 0.9090599307579156 0.9037941424367627 0.8981062521770939 0.891014758433129 0.0010365070292165945 6.188832230461339e-07 1.5405421201284618e-08 1.4682524331511093e-08 1.4172015758338184e-08 1.3666890231171018e-08 1.3170795080450012e-08 1.2687621758962237e-08 1.7419599183340914e-08 2.4055427953222257e-05 0.28534333909591897 0.36513368879695635 0.4644840402045428 0.5589585614890565 0.6344287123605884 0.6923755833867895 0.713668282427775 0.7051498019981141 0.6957652172519132 0.7000945091321692 0.708503493790108 0.7018916759328617 0.66316459808625 0.5728581985620391 0.38912366804107795 0.0001382737926233363 0.9999975823556262 0.9865475883835864 0.9750780786376703 0.9652436025112179 0.9567451566898836 0.9493194815217182 0.9427319811049214 0.9367685245013244 0.9312295974652022 0.9259218669552315 0.9206559556434859 0.9152198876681269 0.9094435727941811 0.9028369380842352 0.8947304085002283 0.0016363155784483829 0.00016621332254271507 0.00016266640582521412 0.00015980024123757536 0.00015687624275189584 0.0001539269568912142 0.0001509740934101361 0.0001480422956437997 0.00019085549971469893 0.00037084694976805395 0.9010330160565236 0.900974901530227 0.8554450739057866 0.7801543446261439 0.7305875704042533 0.7147869430376657 0.7133054363919573 0.7083138074948492 0.700307429212611 0.6980308665440618 0.7019175605710577 0.6999230815370423 0.6726143614998146 0.59386491306871 0.4140156605447467 0.00013715657601534633 0.9999962703450436 0.9888580735203194 0.9791233693987639 0.9705765159470532 0.9630193173496516 0.9562662102383536 0.950140717905045 0.9444720014002399 0.9390906186516591 0.9338263124252474 0.9284983288890818 0.9229392644166503 0.916837288788522 0.9105148508685312 0.8999220049954232 0.8998632041490756 0.8997915112180582 0.8997069561641214 0.8996125738461848 0.8995078030760387 0.8993919921598615 0.8992642526383747 0.8991241905537642 0.898971002295639 0.8988096055338886 0.9026505874982006 0.9037465294532719 0.9033257738281923 0.8828826412492523 0.8435225248348742 0.8020977978615277 0.7691286231813144 0.743748062006071 0.7234098198230596 0.7096595105978025 0.7038312790684537 0.6998515573997814 0.6806949852194251 0.6156517532843137 0.443734659930934 0.000136251439837013 0.9999516675001965 0.9910712900645259 0.9831242770978976 0.9759855531265298 0.9695316788860129 0.9636377799182079 0.9581762518334204 0.9530153794909985 0.9480175764555582 0.9430382582998076 0.9379307359675393 0.9325256366081444 0.9267467049465339 0.9202371915845228 0.9133941124679668 0.9089343785047386 0.908017341129504 0.907554232266523 0.9073057790163539 0.9071444646904507 0.9070286562624061 0.9069492454590631 0.9069470180347621 0.9070085952970541 0.9077167237790646 0.9082759940727005 0.9087406614910314 0.9081593946154324 0.9049241976948221 0.8924877394129279 0.8690229247619711 0.838