# vtk DataFile Version 3.0
vtk output
ASCII
DATASET RECTILINEAR_GRID
DIMENSIONS 41 41 1
X_COORDINATES 41 double
0 1 2 3 4 5 6 7 8 9 10 11 12 13 14 15 16 17 18 19 20 21 22 23 24 25 26 27 28 29 30 31 32 33 34 35 36 37 38 39 40 
Y_COORDINATES 41 double
0 1 2 3 4 5 6 7 8 9 10 11 12 13 14 15 16 17 18 19 20 21 22 23 24 25 26 27 28 29 30 31 32 33 34 35 36 37 38 39 40 
Z_COORDINATES 1 double
0
POINT_DATA 1681
FIELD FieldData 1
Concentracao 1 1681 double
1.0 1.0 1.0 1.0 1.0 0.9999999999999998 0.9999999999999998 1.0 1.0 1.0 0.9999999999999998 0.9999999999999996 0.9999999999999994 0.9999999999999993 0.9999999999999992 0.9999999999999991 0.9999999999999981 0.999999999999931 0.9999999999966058 0.9999999998756436 0.9999999970265286 0.999999954902398 0.9999995546619351 0.9999969770738194 0.9999849436560988 0.9999413785288858 0.9998112955684295 0.9994757528880382 0.9987028490652761 0.9970777879810268 0.9939090358704028 0.9880980395362001 0.9779259697019652 0.9606409016801797 0.9316256917284588 0.8829040538504402 0.8008216799884983 0.6651163412631192 0.45717141243638776 0.19672674152269037 3.0951880295942988e-06 1.0 0.9999999999999998 1.0 1.0 1.0 0.9999999999999997 0.9999999999999996 0.9999999999999989 0.9999999999999989 0.9999999999999987 0.9999999999999982 0.9999999999999977 0.9999999999999976 0.9999999999999976 0.9999999999999973 0.9999999999999971 0.999999999999996 0.9999999999999284 0.9999999999964093 0.9999999998643104 0.9999999966809882 0.9999999488188708 0.9999994890893649 0.9999965170340637 0.9999826626588331 0.9999287695390242 0.9997705424295036 0.9993864187084539 0.9985379976618235 0.9967962120192178 0.9934510623418302 0.9874141512472008 0.9770304906245288 0.9596890709292584 0.9310220871967726 0.8830068195199816 0.802206182379235 0.6672549432757899 0.4591455462323919 0.19753356785379816 3.104529322173044e-06 1.0000000000000002 1.0 1.0 0.9999999999999999 0.9999999999999997 0.9999999999999996 0.9999999999999989 0.9999999999999987 0.9999999999999982 0.999999999999998 0.9999999999999976 0.9999999999999973 0.9999999999999968 0.9999999999999964 0.9999999999999958 0.9999999999999958 0.9999999999999944 0.9999999999999235 0.9999999999958766 0.9999999998326072 0.9999999956699979 0.9999999298951147 0.9999992692229731 0.9999949019491374 0.9999681851132379 0.999563744820516 0.9988120131941974 0.9978675702942043 0.996610255761513 0.9945042963246118 0.9906623895157263 0.9840631479699486 0.9732982224443409 0.9562614959116948 0.9289635661910159 0.8842625560946746 0.8059649907190968 0.672993563944467 0.46322597135668103 0.1985875135656139 3.117301217784306e-06 1.0 1.0 1.0000000000000002 0.9999999999999998 0.9999999999999998 0.9999999999968443 0.9999999999902542 0.9999999999794907 0.9999999999641741 0.9999999999441526 0.9999999999197048 0.9999999998918215 0.9999999998627367 0.9999999998375432 0.9999999998254331 0.9999999998359125 0.9999999998581012 0.9999999998849957 0.9999999999005137 0.9999999996782605 0.9999999930871674 0.9999998790185456 0.9999986124117306 0.9999893687723195 0.9996672733860728 0.9897678889399396 0.9790438082139509 0.9737552763156915 0.9703485830490004 0.9673974083573266 0.9627169023146714 0.9555218490088553 0.9450220985711261 0.9305661176094293 0.9099160938395865 0.8728847913924097 0.806237904065781 0.6767545415455446 0.4652191481420491 0.1974553910424422 3.1152611186729705e-06 1.0 1.0 0.9999999999999999 0.9999999999999999 0.999999999994256 0.999997934089448 0.9999960164075026 0.9999940913424388 0.9999921074454674 0.9999900790439418 0.9999880472330372 0.9999860835362041 0.9999843460345064 0.9999829862598315 0.999983648063076 0.9999864867584035 0.9999919983595446 0.9999949092218219 0.9999966962998927 0.9999977321607579 0.9999983327338221 0.9999984237024847 0.9999951501714047 0.9999558396603797 0.9961317272960305 0.8355146544868313 0.799566416070833 0.7832593836921379 0.7761198282007379 0.7724439381445238 0.7682124453124838 0.7632780409123585 0.7587217957172334 0.7550585469680593 0.7683971483346609 0.7768956011541985 0.7635600792821899 0.6603719847319196 0.45503016539753327 0.1909919153356594 3.074852952788814e-06 1.0000000000000002 0.9999999999999998 0.9999999999999997 0.999999999997484 0.9999982236465607 0.0012254135747937832 0.0009310174545522872 0.000881947224376623 0.0008286749873689882 0.0007801017418073265 0.0007416746038493067 0.0007154409779784175 0.0007197016600157964 0.0007030731379586247 0.0012971472217106613 0.9999624496388816 0.9999760957072085 0.9999854234758369 0.999990279075085 0.9999931791484447 0.9999948959325354 0.9999951584086528 0.9999827065717715 0.9998061749639905 0.9768373647740616 0.00047094009152494435 5.283408625650527e-05 5.455293277912587e-05 8.009183469033027e-05 9.405814621956785e-05 0.00010338879895199126 0.0001097776970016211 0.00011736748116799643 0.00011902531251816892 0.00021178759026070724 0.7605539820395751 0.7357733168108244 0.6320311989894057 0.43291810827280003 0.17741265418283628 2.976569168355498e-06 1.0000000000000002 0.9999999999999996 0.9999999999999994 0.9999999999923869 0.9999965688144523 0.000652999536551422 5.731704730466128e-07 3.6651965958158824e-07 3.3161626666144174e-07 2.973892760605484e-07 2.6949513166760775e-07 2.5040326035521845e-07 2.4462532078148663e-07 2.5469675401497936e-07 0.00011157562454164277 0.9999370668461894 0.9999662966460666 0.9999772424021109 0.9999839884751541 0.9999882082434718 0.9999908322856316 0.9999895843124524 0.9999361094657616 0.9989504501838535 0.9522625685697457 0.00026334852396585665 4.0066337369485176e-08 2.4708562335342535e-09 4.689191904006387e-09 6.481981888890777e-09 7.892564530939707e-09 9.058235022812848e-09 1.0258633723587107e-08 1.1833771156831201e-08 2.0907273014709366e-05 0.730887042071014 0.6995753932677021 0.5936747727116801 0.39709001133264615 0.15796830575589446 2.813997364586187e-06 1.0 0.9999999999999998 0.9999999999999993 0.9999999999843852 0.9999949231051568 0.0006375049097938057 1.9643771720683256e-07 1.3835072767203917e-10 8.591717500129556e-11 7.358573059222628e-11 6.335832862066189e-11 5.587116791748186e-11 5.22386362067458e-11 5.83986320742424e-09 0.00010722127040037255 0.9999054014447869 0.9999539961876381 0.9999696408241133 0.999978010824034 0.999983352293136 0.9999863187094143 0.9999758879043447 0.9997690764029439 0.99636079634026 0.9232453292124816 0.00023284490340069709 3.1926102473078016e-08 3.0823786127853895e-12 2.112073450586187e-13 3.2801756921248707e-13 4.348204452529679e-13 5.305818592020478e-13 6.351975601940334e-13 3.2175850352899157e-10 1.8073996623555927e-05 0.6899166224429133 0.6513665001295779 0.5416119314601077 0.352397283731711 0.13479180456597162 2.5901583125101457e-06 1.0000000000000002 0.9999999999999994 0.9999999999999989 0.9999999999732399 0.9999932434819925 0.0006177237408901931 1.85327561732939e-07 3.6948326856803994e-11 2.197361705545078e-14 1.3331098982904625e-14 1.080730325068512e-14 8.909549736045381e-15 1.9108435333632417e-13 5.2787914211798506e-09 0.00010222124219505234 0.9998712638121977 0.9999404581185347 0.9999614625995465 0.9999720051921346 0.9999782913622662 0.99997874587078 0.9999279187565469 0.9992711180346183 0.9913894216114901 0.8887057343423728 0.00020371658195756276 2.720626647169511e-08 2.5498473660942276e-12 1.926024060185467e-16 1.3637256961927413e-17 1.9136982081101214e-17 2.4367932039510762e-17 3.3857542432369443e-15 2.543019655322219e-10 1.5281198883182402e-05 0.6392677650331436 0.5941677519656915 0.48191595750428295 0.3033135170314563 0.11122734330213796 2.3198347930529587e-06 0.9999999999999999 0.9999999999999993 0.9999999999999986 0.9999999999587904 0.9999915259802008 0.0005818956327162437 1.6674646705357177e-07 3.161496822979744e-11 4.51806981756299e-15 2.421635076232668e-18 1.4324842549402103e-18 4.969414511978999e-18 1.5504198173263363e-13 4.697704970233301e-09 9.618248648498799e-05 0.9998345343238298 0.9999246705174976 0.9999516199277376 0.9999639990785999 0.9999682708289801 0.9999488940038942 0.999752761012954 0.9980606891770354 0.9834051545778832 0.850959697365382 0.00018186299153819985 2.349057519177409e-08 2.1813601714141405e-12 1.581874979669523e-16 9.961514432237888e-21 7.153685975123564e-22 2.7070271927107658e-20 2.4615956654278683e-15 1.968515385243108e-10 1.2642727180499481e-05 0.5804493217180423 0.5305067373001259 0.4192081009874118 0.25505210314348903 0.08965708898988839 2.024074625931095e-06 1.0 0.999999999999999 0.9999999999999982 0.9999999999409493 0.9999897768694279 0.0005461377410755698 1.4742778817273917e-07 2.6252875526971622e-11 3.4871341193354714e-15 3.727232209344852e-19 2.60148732874546e-22 2.984825462457216e-18 1.2603419568119626e-13 4.0618623469440675e-09 8.904456047999204e-05 0.9997827766604518 0.9998911016631724 0.9999202439836519 0.9999249779911182 0.9999018719094593 0.9997845941061826 0.9991773651026549 0.9955912578495337 0.9723663743290872 0.8129584359399715 0.00016451724378581308 2.067107031850586e-08 1.8911459444230455e-12 1.3598678681831884e-16 8.091199581028652e-21 8.630254935357674e-25 1.7878552169660336e-20 1.7636404196045422e-15 1.4891902003770462e-10 1.0227173047918918e-05 0.515269994116719 0.4631709393951596 0.35745207312346067 0.21114888179556188 0.0715264023358941 1.7261025878520993e-06 0.9999999999999999 0.9999999999999989 0.9999999999999974 0.999999999919674 0.9999880028573636 0.0005127070960390966 1.3036792508122417e-07 2.157886922337591e-11 2.6281913007469807e-15 1.9232007956445146e-18 8.56848833117325e-19 2.5708147622270998e-18 9.757192111420369e-14 3.3835745968818665e-09 8.063807534808211e-05 0.9995201676515624 0.999627448039499 0.9996267380953208 0.9995651732088588 0.9994049179336766 0.9989709800236063 0.9975029164946377 0.9912287807609935 0.9592247962909107 0.7789106102279317 0.0001522195993631653 1.8795766937420657e-08 1.6928758492498172e-12 1.1991378897955948e-16 4.278282834046255e-20 2.8067486293342993e-20 3.372328031013909e-20 1.229924130712377e-15 1.0970791729302464e-10 8.059793661068501e-06 0.4454461122007823 0.39476536482039165 0.29987589356177774 0.17391730105454029 0.05746213460807627 1.4473947703255457e-06 0.9999999999999997 0.9999999999999987 0.9999999999999972 0.9999999998949017 0.9999862255524183 0.0004980699373039284 1.1905703619277028e-07 1.8431415134582183e-11 1.2535437420060468e-13 7.665403199310407e-14 4.361173659966841e-14 2.2951865401100506e-14 8.186750675579888e-14 2.672937942289939e-09 7.060004749215029e-05 0.9973090428943079 0.9973495337830542 0.9972417319477226 0.9970010650392315 0.9965360944898556 0.9955467650549836 0.9929456548310659 0.9840766328035927 0.9457138434243065 0.7548651908922052 0.00014805513499710477 1.8121265162199708e-08 1.61775824704024e-12 4.039664265753122e-15 3.213949659470968e-15 2.6071933914043474e-15 2.096475135847318e-15 2.4948222387726012e-15 7.792047109119659e-11 6.131304634277912e-06 0.37198416944913204 0.3273226874676693 0.24879023253093382 0.1446921335319228 0.04763694257049521 1.205091457764977e-06 0.9999999999999997 0.9999999999999801 0.9999999999964058 0.99999999923652 0.9996379902109785 0.0004568354565597132 1.1693477475950399e-07 5.174303523055114e-09 3.938554987790123e-09 2.7522139004235313e-09 1.7713671714043557e-09 1.0539968039532933e-09 5.794933750567521e-10 2.2304817597072268e-09 5.820334362037361e-05 0.9826764885023357 0.9828436966707284 0.98317790489257 0.9834743143365806 0.9834880073235917 0.9828596081625249 0.9803916294730592 0.9713622602692381 0.9333418243025076 0.743627551339216 0.000144920269491113 1.8752453198443587e-08 3.3645847343090597e-10 2.8704325995045635e-10 2.438622318472357e-10 2.054629697080185e-10 1.7163150686727125e-10 1.419765498731945e-10 1.6785048319624312e-10 4.391929252006408e-06 0.2937774715197103 0.2612185972036663 0.20514729628556544 0.1237637983828419 0.04199239988674708 1.0103536424178925e-06 0.9999999999999996 0.9999999999352494 0.9999999960421566 0.9999997888804936 0.9996538171354092 0.000965585310053865 0.00011094002973357189 0.00010064528989568684 8.65838581273891e-05 6.990631215643309e-05 5.2583537193355616e-05 3.6595702449107844e-05 2.3404875509170856e-05 1.3606988037276713e-05 4.888833455660024e-05 0.9068855665494246 0.9116677646329772 0.9204500760148433 0.9283278613504329 0.9351501740563016 0.9408124383606544 0.9446113222528856 0.9424015656783156 0.9165771788073047 0.7671912373864351 0.00023999527669092078 2.050891479041913e-05 1.8524232073407245e-05 1.659688188250148e-05 1.4748865642201967e-05 1.3003230484544064e-05 1.1369279209532813e-05 9.847292516952222e-06 8.426566900396604e-06 9.739422890503729e-06 0.19991173661951575 0.19057757667263037 0.16598848394161783 0.10943905967883165 0.04010778230808497 8.667513816881056e-07 0.9999999999999731 0.9999999845273305 0.9999996340994625 0.9999937060541425 0.9996650485974535 0.9996348602408873 0.9995854211542498 0.9994792314439523 0.9977748032422794 0.982807887711716 0.9287128048124996 0.8156139473121129 0.6505799881993237 0.4634928280696754 0.28610172895103075 0.37883783881984573 0.5808250499387393 0.6822314697654984 0.7445286133202641 0.7870173823554658 0.8194683127133874 0.8455907822613649 0.8661647262531514 0.8657097297220465 0.7793544314582102 0.761606245733249 0.7352617700848704 0.7038759899093672 0.6689684118163943 0.6312191080475597 0.591133896151862 0.5491031065865513 0.5053869141447198 0.45991164730171924 0.41177575060490423 0.3503019935506538 0.22686199865723686 0.1637544785857744 0.1065258898679779 0.04245928812758162 7.734535862783037e-07 0.9999999999990904 0.9999994407585888 0.9999932689482102 0.9999550384204763 0.999688942573357 0.9996461673993929 0.9996230239324971 0.9995329094324962 0.9969358360337827 0.9765195740736888 0.9103550642164199 0.7833824329491557 0.6107508615489523 0.42722706851987025 0.2648249752938538 0.1880180228340336 0.2459205704616015 0.3437030179862146 0.43328415597437103 0.5094217533525078 0.5749188547483086 0.6337213536537968 0.6851228273363873 0.72849194141952 0.7214378912719137 0.7118078830849858 0.686846475305671 0.6551808299268067 0.6194822448330026 0.5809871034749273 0.5405032086363285 0.4986913540804804 0.4561508059693322 0.4134900750986905 0.37077674990427606 0.3269704790576696 0.2620329875177715 0.18901885556077536 0.12158724434114689 0.05044180390679079 7.270745410869977e-07 0.9999999999910181 0.9999940471896208 0.9999666886217816 0.9998699778631993 0.9996760358988457 0.9996427761313736 0.9996206398803901 0.9990465120701338 0.9896076050350306 0.9453895048476783 0.8417049268077309 0.6831876035761778 0.5022023546794195 0.3359913319357492 0.20794070373554727 0.12687039083918034 0.10186795360416762 0.12188047077498046 0.16527773450279853 0.21834657275983319 0.27574685041401487 0.3356595705673916 0.39726119594319126 0.45425050124532373 0.4915787835298499 0.50015208457738 0.49323337776952025 0.4703177409288059 0.4409926392898618 0.40857550761477357 0.37502410686271426 0.34164477820904454 0.309740334483198 0.2808440683006344 0.2573568241811307 0.24070542730193564 0.224016888735908 0.19239436084797978 0.13559702763382142 0.06606664503175343 7.218668579718901e-07 0.9999999992599635 0.999348508448411 0.996663331419787 0.9933733295271325 0.9892941760482397 0.9832519853447295 0.9723886258293383 0.9483046316179018 0.8793438669169615 0.7571038937639063 0.5955263700796669 0.4263963099467914 0.2797764441641731 0.17105534245020435 0.10010127893618036 0.05815837362543962 0.036812768698472144 0.030685604173543202 0.03565780318957976 0.04858041231184722 0.06768149544327236 0.09227111103641354 0.12151257396964932 0.1526042723666552 0.1773396271840696 0.19192205964230977 0.19272332020543154 0.1849515715778845 0.1717783505648495 0.1566311313034993 0.14119137999970907 0.12652837275885306 0.11356616920284279 0.10354592669762629 0.09817437288813644 0.1002944248940732 0.10826843239554004 0.1266542184919077 0.12352198268473803 0.0738940677836733 7.281673370691774e-07 0.9999998367557476 0.8285074101700196 0.0038396533042752774 0.0030345133761941023 0.0034073819533253346 0.0033183192687816073 0.003059332002290498 0.002576572247997349 0.001977115008805704 0.0013941565245745484 0.000906373136205699 0.0005459538731084759 0.0003075660343809811 0.0001648269101403474 8.624083981064429e-05 4.5718288473104255e-05 2.77834087166017e-05 2.5163136212786855e-05 3.357570474895419e-05 5.019680834615739e-05 7.37631768168844e-05 0.0001041315292770463 0.00014056623573080546 0.00017875732386192215 0.0002058247972781517 0.00021629437603723885 0.00020688089755530915 0.00018669806945056241 0.00016159621119584178 0.00013650870748280834 0.00011347444346359037 9.34049050929057e-05 7.6719647928392e-05 6.382318657554913e-05 5.500882243122991e-05 5.1179164605140755e-05 4.8055022292020396e-05 5.875220543689334e-05 0.11896286379673673 0.08015970369182829 7.396326982349623e-07 0.9999996943709808 0.8363261566961234 0.0010128494572074027 0.00010047452955844558 9.936945160135966e-05 9.706283620849382e-05 9.35532184355344e-05 8.909647260284003e-05 8.424170042077294e-05 7.93511203587226e-05 7.458000765482685e-05 6.9996832702331e-05 6.564593306246908e-05 6.156186375709295e-05 5.775331211830676e-05 5.4182407466127446e-05 5.0796533857104654e-05 4.753122012701486e-05 4.433918666771456e-05 4.11916724319902e-05 3.807310962167624e-05 3.497279337016734e-05 3.187176597264228e-05 2.872778629991826e-05 2.5459737048010282e-05 2.195733085350046e-05 1.8117286582505725e-05 1.3876930862437791e-05 9.342818544066405e-06 4.939002384237842e-06 1.4962691531784787e-06 5.618732762857596e-08 7.758952702990038e-08 1.6363109939865905e-07 3.156254337189278e-07 5.100690004814421e-07 7.125302076073753e-07 2.252709777725266e-06 0.11363457338554452 0.07327384895504595 7.431905135086094e-07 0.9999995491851177 0.8511947664753199 0.8511548587436488 0.8510830716133639 0.8509642972397383 0.8508014904660741 0.8505909571653933 0.8503300549291779 0.8500147324843119 0.8496402465086499 0.8492014458418449 0.8486926359834702 0.8481048505417522 0.8474193591050673 0.8465984351097444 0.8455708336321673 0.844222290712189 0.8423691796312308 0.8397402575296885 0.8359525150519825 0.8304848974497048 0.8226423341645313 0.8114710227107924 0.7955508740951104 0.7725323958774014 0.7381882152672417 0.6853216342744687 0.6021786878584139 0.4747728373601614 0.2987017279960628 0.10680659511423399 0.00024642620228694495 0.004680928781938914 0.015420718395297593 0.03107812282470074 0.0485120894345864 0.06485708172421857 0.07830955006688611 0.08899292220786917 0.06175957572143035 7.360755145974364e-07 0.9999994257206676 0.8960628712713856 0.8690047250106884 0.8640740902446369 0.8612010791756176 0.8594204462069899 0.8581627770498075 0.857217122800522 0.856471007307013 0.8558681491259171 0.8553837627314296 0.8550151370697846 0.8547396292472097 0.8544782406267799 0.8537968927935401 0.851608769551873 0.8486785139925463 0.8454202853929325 0.8416557028831434 0.8367883738647455 0.8301218325562033 0.8208315679085443 0.8080676891114115 0.7906578590393004 0.7665087132708337 0.7320806313998649 0.6790893042461565 0.5964520722390751 0.46949100150380546 0.2949465525944165 0.10645009796203177 0.00017855850465613746 0.003991417871567025 0.013334136072053243 0.02682807581475329 0.041384231758438916 0.053990050745364525 0.06284706412658747 0.06304185997495491 0.04320252852710735 7.076546527486592e-07 0.9999992959150166 0.9195961567404513 0.8903647211443834 0.8778815889099706 0.8720433871194243 0.8684009129314864 0.8659375355928278 0.8641603171038831 0.8628378408847215 0.861849392734239 0.8611403866036577 0.8606932085716051 0.8604836705434541 0.8600905312534731 0.8556702278040377 0.8336315824507586 0.8142873778751514 0.8033851465284693 0.7949431443662254 0.7868786521517741 0.7775945080493478 0.7659816954128642 0.7518499260367563 0.7357400883936077 0.7174957412367742 0.6926316799629564 0.6515549467172995 0.5770450659158344 0.4553798852459631 0.2863917689150774 0.10609266432320273 7.306580841796172e-05 0.003064177086064839 0.01077109502279875 0.02207397261699186 0.03412193192391459 0.04415108959963555 0.04970324024957394 0.04761419867346399 0.03159029209161953 6.590571578292011e-07 0.9999991575690655 0.9363167727173209 0.9063214321768218 0.8912263783469311 0.8826949763204144 0.877383822231356 0.8737520139982144 0.8711427103793066 0.8692160680274387 0.8677958558652082 0.8667956481831485 0.8661929891028624 0.8657966228538914 0.8636882792423767 0.837941476073021 0.6644936361468217 0.6204085553506643 0.5987283483876191 0.586088937503374 0.5761275222433224 0.5664759507673212 0.5558731577154152 0.5454834703025306 0.5362212354060529 0.5460635284704038 0.5574072790799884 0.5736089649192683 0.5291470167622733 0.42476755419673007 0.2701422566729419 0.10449500088784516 0.0037481088427956098 0.0021016828684039188 0.008127288652759107 0.01732581180874608 0.02725460564829791 0.03529907108636557 0.0392360721512589 0.036534110194657604 0.023684861671026246 5.930714115611135e-07 0.9999990127898529 0.9477526866107288 0.919257543400863 0.9028141417466149 0.8927196978951151 0.8860647166811417 0.881419416825509 0.8780345452746866 0.8755096731985342 0.8736225919771886 0.8722549382693505 0.8713038776511284 0.870181333568619 0.8624039273305063 0.7703925917214172 0.0003441354974941944 3.2012123449854076e-05 2.9018688986087183e-05 2.6580921773154533e-05 3.602916751238771e-05 4.3365975998326336e-05 4.886081646231977e-05 5.521112452138905e-05 5.815516697487374e-05 0.00011824715812148762 0.5394676255032634 0.5312290647030249 0.48530056559045526 0.38877638693508 0.2484460278595516 0.1014816982438339 0.009427727830293423 0.0012556124236856746 0.005698404646599303 0.012969211320219347 0.021090454917512224 0.027717257500610635 0.030799065333141175 0.02835001781929768 0.018139316834573913 5.176862478980293e-07 0.9999988626363339 0.9561708660939097 0.9296214450726165 0.9129012994716623 0.9018835679676143 0.8942817136272319 0.8888075574313071 0.8847311531710528 0.88162546860619 0.8792350134824534 0.8773835767430267 0.8757881745558113 0.8727088393510284 0.8513541755796974 0.6908824351583541 0.0001573917571702254 2.1886906981838392e-08 8.118463019128007e-10 7.359196209916923e-10 1.3746525054720001e-09 1.9984618394292976e-09 2.5996942074044417e-09 3.291165478965796e-09 4.265271799613229e-09 1.205795774691905e-05 0.5043712472319615 0.48959345512403935 0.43852657878124285 0.34666989572639667 0.22290882043483407 0.09706512914169704 0.01576048448313888 0.0011558253180228688 0.003663458667549916 0.009218787546388904 0.015807224386816685 0.021372338821082797 0.024040287638868847 0.022133021500268357 0.01408277231768676 4.404628920065867e-07 0.9999987078467089 0.9625953030299026 0.9381335098508004 0.9216636303612926 0.9102108877576028 0.9019717147998559 0.8958498100677822 0.8911685122533706 0.8875013369118766 0.8845602417576688 0.8820645423052988 0.8792351572351536 0.8718008261427436 0.8305581225081708 0.6204994205678512 0.00012110569051284741 1.4280346237754863e-08 1.2179249023303509e-12 1.7742038474022237e-14 4.040302075798609e-14 6.80683254568974e-14 9.905817448176591e-14 1.3993393677616076e-13 1.485734146771942e-10 9.727182748839741e-06 0.4528770129226477 0.4331145246439296 0.3820879939858407 0.2993778492393456 0.19485863245861043 0.09152837323738537 0.02190130272571276 0.002598181601458383 0.002275775496917424 0.00616123254504355 0.011434343276556094 0.01617252252710687 0.018645720955313458 0.017351326343823397 0.011051795964355526 3.674541985025596e-07 0.9999985329113259 0.9676890626525285 0.9452631792027348 0.9293529627376881 0.9177851651071878 0.9091518764308917 0.9025347705277789 0.897326535076919 0.8931087963602049 0.8895417341556763 0.8861169227740368 0.881092414189382 0.866263187406122 0.8026121792968791 0.555595428353114 9.419727950400527e-05 1.0413397759508546e-08 8.475881746954029e-13 5.522395322745435e-17 1.0153362754563545e-18 1.8690569656341326e-18 2.9399537136213165e-18 1.1867939848567801e-15 1.0355506544675566e-10 7.379048239556946e-06 0.38636400821610123 0.3644971786450435 0.31781656079517107 0.2488347261572313 0.16595408266088402 0.08495560381581259 0.027239233439467762 0.005327050734521374 0.0018395265948342216 0.003952026127881425 0.007932438509765823 0.011948901134970222 0.014350031720655763 0.0136598822633276 0.008762967501156332 3.023806126789195e-07 0.9999976631784263 0.9718596667172722 0.9513685743193078 0.9361897830418091 0.9247265159190304 0.9158801676160954 0.9088886315789566 0.9032077115237095 0.8984108453643923 0.8940350537181652 0.8891225629315421 0.8804650859201661 0.8557914387628289 0.7701462104551695 0.5032011103153237 7.818693661528652e-05 8.180694302291567e-09 6.467293108635804e-13 4.118969277476455e-17 2.2415907876167616e-21 4.3706631139980954e-23 6.5800550024558604e-21 7.074540545166187e-16 6.654812183993824e-11 5.18453503953656e-06 0.3074356996978224 0.2869097673880191 0.249406419337338 0.19760634099197202 0.13701393898572148 0.07710304895783965 0.0311837919443184 0.008849561288009797 0.002431266573394543 0.0026163597155073604 0.005291852846391173 0.00855133273061132 0.010833228263243611 0.010679082783569833 0.006974047108828186 2.4678350730781914e-07 0.9999818515003202 0.9753638193541748 0.9566971156590929 0.9423462457984146 0.9311314865340379 0.9221923957094706 0.9148870810442351 0.9087023518146373 0.9031396058443959 0.8974748454848751 0.8900614707746376 0.876093157649612 0.8403829549115693 0.7366190649255985 0.46044098346890433 6.681745637457335e-05 6.67494087971322e-09 5.100658591775782e-13 3.164459526875412e-17 1.667798697049664e-21 1.3076636673632473e-25 3.2523269108420038e-21 3.768877749610547e-16 3.824710912398887e-11 3.274480993066298e-06 0.2210766553392933 0.20538934873255812 0.18052131259684392 0.1473664909473418 0.10807775127083788 0.06736064872627855 0.03304035352348727 0.012438967606815187 0.003938748482088879 0.002165581328176407 0.0034860400528890444 0.005937203594191439 0.008021063736148642 0.00829493395395775 0.005579153507538225 2.0080507943109406e-07 0.9997809450887758 0.9782055541816993 0.9612435474624986 0.9477395308941354 0.9368087086329688 0.9277557714085218 0.9199997132519763 0.912986435168142 0.9060452495090513 0.8980769271156412 0.8867521575915948 0.8662388497434411 0.8204776449141177 0.7052996084706802 0.4288985701535379 5.923958448568598e-05 5.703534840084912e-09 4.205860229807005e-13 2.5203641667134784e-17 6.1579928804851854e-21 3.524299257130785e-21 3.868123558539037e-21 1.6709487749205176e-16 1.839009450091075e-11 1.7406140121456265e-06 0.13459012855087557 0.1261641071354243 0.11493399753544341 0.09938264683510695 0.07891050260087605 0.055047988018741875 0.03201278118655758 0.015137085593962525 0.005952714709080816 0.002531129327460725 0.0024761648980644335 0.004044931702536375 0.005826821747749445 0.006404239085361026 0.004496956519581108 1.637252439620554e-07 0.9981481760636901 0.9792120343637999 0.96374029077749 0.9508961924831363 0.9399820790709645 0.9303833104413819 0.921505873327823 0.9126940711948655 0.9030912599586767 0.8913530690544261 0.8749432547440431 0.8481633467453044 0.7962400699477142 0.6787930117987598 0.4117077379661221 5.595476159535003e-05 5.2237120937657525e-09 3.72935325863031e-13 7.46719873378916e-16 5.494577161960024e-16 4.1126880627773846e-16 3.046568191520748e-16 2.743219356467946e-16 6.086904537231058e-12 6.427663445457303e-07 0.057473293612784554 0.05659916356267024 0.057115964802640126 0.0556049776819592 0.05000215155279009 0.0400038091368688 0.027477282296984457 0.015873559161029727 0.00772544352742483 0.00344432632399392 0.0021821740981761394 0.0028151506151845424 0.004172247513938737 0.00491540754629333 0.0036588183426965997 1.3440635115361077e-07 0.9892082366832845 0.9724471503351594 0.9579631442916957 0.9451178676934531 0.933320290515428 0.9219928029408075 0.91053868668604 0.8983007806850222 0.8844862338571909 0.8679801955974265 0.846822265454925 0.8165940666671951 0.765451797795819 0.6588589699873794 0.4078847284742248 5.383919223677674e-05 5.164148051172843e-09 8.605630813923771e-11 6.851133646333408e-11 5.400511756275184e-11 4.2061820917852654e-11 3.240826854778105e-11 2.4738793361981818e-11 2.4848054033266146e-11 2.166251376103526e-08 0.0022834032943083926 0.006624229918060537 0.013594050397236296 0.02028447968367385 0.023917898189866154 0.023599951631985396 0.019692963596730256 0.01390352730735315 0.00833132192263832 0.004361149766065351 0.002396209723887733 0.002171924424375229 0.002996749291689457 0.003755471305541184 0.0030083957538244457 1.1159466182266416e-07 0.954943747620106 0.9397902758095127 0.925465767008859 0.9114947256454677 0.8974220623824081 0.882821245096682 0.8673062552380717 0.8505556813739333 0.832291339914657 0.8121705730414812 0.7893427735151769 0.7613064722408338 0.7196819476351044 0.6386117907519705 0.44219246927576605 8.990123688652411e-05 7.556413464625307e-06 6.428439285193025e-06 5.386574633867357e-06 4.452439174091624e-06 3.6353325389549664e-06 2.9345142601743237e-06 2.3446630464549814e-06 2.443879878530457e-06 2.975950354510164e-06 0.04645082281382353 0.03217763885386701 0.018123628393151778 0.012535023040214087 0.01171221204365729 0.012195218741723007 0.011863640751915516 0.010090851895064415 0.007385032143954197 0.004679100035620434 0.002748426592590492 0.0019699837389546655 0.002245008464220103 0.0028736574230753178 0.0025018750710110653 9.410562768380425e-08 0.8610298312437121 0.8471927760412125 0.83258620384263 0.8169861069216715 0.8002439291362774 0.7823349257880297 0.7633985449091013 0.7437598092858217 0.7239267235154755 0.7044394549585503 0.6855827504628991 0.6661951696702461 0.6424851557747678 0.5958264006700431 0.4645749437558134 0.43990216259766873 0.40503737866068895 0.36619427986178127 0.3262445724148467 0.2867185182551744 0.24871298987544904 0.21303619525550802 0.18032354562751293 0.1511050889189137 0.12617016838324854 0.09680922344863836 0.06251107476175605 0.04257681871132494 0.026756073343941224 0.016830086120310627 0.011584447471423693 0.009028193969553977 0.0074711793505729245 0.005993203503853211 0.004400673820539439 0.0029422546874703064 0.0020054624633320988 0.001844191521012637 0.0022370226011660813 0.0021079460655891048 8.092075263078304e-08 0.6761465996719737 0.6643278811288057 0.6506468878202085 0.6352107179021907 0.6182999479531002 0.6003814118578679 0.5