# vtk DataFile Version 3.0
vtk output
ASCII
DATASET RECTILINEAR_GRID
DIMENSIONS 41 41 1
X_COORDINATES 41 double
0 1 2 3 4 5 6 7 8 9 10 11 12 13 14 15 16 17 18 19 20 21 22 23 24 25 26 27 28 29 30 31 32 33 34 35 36 37 38 39 40 
Y_COORDINATES 41 double
0 1 2 3 4 5 6 7 8 9 10 11 12 13 14 15 16 17 18 19 20 21 22 23 24 25 26 27 28 29 30 31 32 33 34 35 36 37 38 39 40 
Z_COORDINATES 1 double
0
POINT_DATA 1681
FIELD FieldData 1
Concentracao 1 1681 double
1.0 1.000000000000099 0.9999999999998739 1.000000000000075 0.9999999999999705 0.9999999999999927 0.9999999999869688 0.9999999988207082 0.999999966861278 0.9999995426137813 0.9999960623024317 0.9999756844536571 0.9998821588356138 0.9995229273998266 0.9983145085882921 0.9946670320158497 0.9847371258003704 0.9607838900324157 0.9109270149206801 0.8236733628684108 0.6971849260087752 0.545334916727927 0.39260433171388437 0.2612211059346469 0.16203504043378827 0.09459533124658741 0.05235130812585759 0.027593411318066828 0.013885460478329231 0.006678127802369571 0.0030689116709895314 0.0013444752137788537 0.0005581890744922544 0.00021701957434572678 7.739389397586845e-05 2.4515193761715607e-05 6.568212340828868e-06 1.3837380329447177e-06 2.0214882012328602e-07 1.5286925738109687e-08 3.497076619818084e-14 0.9999999999999016 0.9999999999999085 0.9999999999997128 1.0000000000000657 0.9999999999999746 0.999999999999982 0.9999999999806921 0.9999999983306788 0.9999999551431459 0.9999994064762248 0.9999950892815034 0.999970808118308 0.9998637295090589 0.9994676456824869 0.9981792864829624 0.9943564724915848 0.9840754506202186 0.9592698373575235 0.9076711410921936 0.8176013840724242 0.6878114279724986 0.5334101218420662 0.3799421616800041 0.2497702545351778 0.153085524023345 0.08830893971784991 0.04836671903070577 0.025249503849823104 0.012593748496022518 0.006007228464060256 0.0027406189024764076 0.0011942006050119848 0.0004946571308411267 0.00019264060488018435 6.914872522688978e-05 2.2058425966514897e-05 5.964334882307218e-06 1.2620067485686906e-06 1.8457257875693167e-07 1.3925845810021102e-08 3.1746038852804604e-14 1.0000000000001295 1.0000000000001281 1.000000000000095 1.000000000000154 0.9999999999999775 0.9999999999999175 0.999999999944024 0.9999999958032488 0.9999999023246295 0.9999988638749173 0.9999916083644061 0.9999550991179216 0.9998109558797434 0.9993327001499234 0.9978980159111379 0.9939130026819124 0.983113955385921 0.9569969610270549 0.9020119575510153 0.8060717290840079 0.6692222832449553 0.5092925159141696 0.35413141734068493 0.22667763089804574 0.1351195129488899 0.07632579896735965 0.041052639522599174 0.021139849670127712 0.010419148631148735 0.004918709343537853 0.002227003516891757 0.0009681307643843203 0.00040366062970557265 0.0001602474438024009 5.913172301740596e-05 1.967310703784632e-05 5.44330913907319e-06 1.1726286795591918e-06 1.7148637542241392e-07 1.2812868573433478e-08 2.9056959836037636e-14 0.9999999999999176 0.9999999999999236 0.999999999999936 0.9999999999999614 0.9999999999999706 0.9999999999951211 0.9999999993180234 0.9999999695139365 0.999999527895775 0.9999959254812013 0.9999760953623965 0.9998946277870238 0.9996297463559998 0.9989176090712124 0.9972033028683109 0.9926608915958944 0.9815149835661159 0.9529600256314055 0.8919097250089678 0.7858929107227864 0.637822654384227 0.4698707052113723 0.3130681383118986 0.19035959896954371 0.10848543947178255 0.05841859190476491 0.03077666423269537 0.015599184257614924 0.007570780378550498 0.0035234052110999295 0.0015783772596774728 0.0006838505486959711 0.00028820623081231967 0.00011853808682018332 4.6966719871110405e-05 1.6201735091493074e-05 4.858838499102945e-06 1.061245452069907e-06 1.5340502152628464e-07 1.1137272783842359e-08 2.5346854608120328e-14 1.000000000000036 1.0000000000000324 1.0000000000000258 1.000000000000015 0.9999999999938292 0.9999979289203368 0.999995847489279 0.9999923777934577 0.9999814133267443 0.9999401608160741 0.999800762149438 0.9994011816430304 0.9984411945954083 0.9965121494305784 0.9936680867195505 0.9897479281247604 0.9772257291237346 0.9440436843672483 0.8719582796469459 0.7505782744016258 0.5876168315781347 0.41152858660506814 0.2556783117256454 0.14126246379773577 0.07079360035938799 0.036871345928491575 0.01923750918468615 0.009621207084900664 0.0045981275664383325 0.0021089791981059335 0.0009329945564976332 0.0004013748656230184 0.00017000627737371015 7.23011320065741e-05 3.195126233171551e-05 1.4835577207350013e-05 4.397290405949413e-06 9.39226358125072e-07 1.2713209226400206e-07 8.707931307559593e-09 2.0247307451955847e-14 0.9999999999999875 0.9999999999999887 0.9999999999999896 0.9999999999973873 0.9999982219625273 0.00036347069430824546 0.0002642289731203788 0.000239344171462253 0.00021437083336813052 0.00019165776644530666 0.00017233589810955444 0.00015653414292382412 0.00014767895047071853 0.00013490276297139356 0.00023152818058382437 0.9837947495700005 0.9688039964137614 0.923294339710038 0.8334949366312457 0.6908590147455669 0.5128256914122343 0.33398296667757027 0.18738839068686985 0.08819466972389108 0.033122300739174486 1.19036069077419e-06 8.191183203505558e-08 4.2762228733835586e-08 3.031632529731454e-08 1.6600295860069937e-08 8.288239507250943e-09 3.921249624677435e-09 1.8491911371772753e-09 8.321824690113736e-10 6.134503895705913e-10 7.978498195601501e-06 2.702708362334582e-06 5.568267647251553e-07 7.534693376310108e-08 4.994672938115728e-09 1.2787482994390477e-14 0.9999999999998269 0.9999999999997294 0.9999999999990633 0.9999999999761634 0.9999965624644115 0.00018822385599944516 4.707066957734175e-08 2.739743560158374e-08 2.2668612876998112e-08 1.8481926693098353e-08 1.5131753159479942e-08 1.2623491635387269e-08 1.101590736484859e-08 1.0114093957192552e-08 1.542747011720562e-05 0.9604013710743218 0.9376016777507061 0.8745683464659175 0.7589338191366817 0.595622619995532 0.4115088953621475 0.244291207551717 0.12056089684112181 0.04626515378524728 0.01003966962019552 2.1038703065656228e-07 3.82777857348563e-12 2.0231318019722599e-13 1.8530437439451947e-13 1.1999971472313315e-13 6.705356437882782e-14 3.480580633894224e-14 1.7711514898523167e-14 8.961793122514265e-15 7.289797886974244e-12 3.369440628193784e-06 1.1782656392136363e-06 2.5396825448814526e-07 3.392183200171486e-08 2.2359430847104277e-09 6.618724071457566e-15 0.9999999999837054 0.9999999999762791 0.9999999999339201 0.9999999993830033 0.9999948775002399 0.00017752785430743257 1.5381544340758058e-08 2.9435422234914074e-12 1.5809531014276427e-12 1.1852863902507708e-12 8.867388291489788e-13 6.746145025505387e-13 5.397373336558209e-13 1.0056097691164513e-10 1.1866841454160098e-05 0.8919428514302442 0.8544800705261996 0.7696820578343622 0.6332508472744132 0.4636542969472697 0.29457972881702765 0.15788811006958564 0.06832885156622637 0.021515172977780696 0.0036165162007161323 7.10760078015983e-08 1.1399684268506609e-12 1.653097258077248e-17 1.1239147895739829e-18 8.210049738280178e-19 5.029943782833412e-19 2.8048251399691903e-19 1.5177044830764742e-19 5.83016966117694e-18 2.624690340406074e-12 1.2677000886827848e-06 4.431586214143615e-07 9.661224719031993e-08 1.2983154224478867e-08 8.473858908255099e-10 2.9706062760378836e-15 0.9999999995002042 0.999999999309285 0.9999999983594933 0.9999999902445057 0.999992942215223 0.00016582258280667132 1.3538023792879692e-08 7.437200416660471e-13 1.139448661848275e-16 5.685114694966802e-17 3.870997155234516e-17 2.659172400951065e-17 3.634348526254216e-16 5.958150971664815e-11 8.100380393892763e-06 0.751230137447237 0.7002064447946288 0.6017250807850844 0.46524474981498715 0.3162494869164143 0.18467984248371186 0.08993539932762983 0.03472577375508853 0.009541263735801993 0.0013902477245724518 2.5383455505858852e-08 4.0060191841014895e-13 5.476487869619421e-18 7.337494302865097e-23 5.440749442868047e-24 3.5517075477884664e-24 2.0808037974433856e-24 5.0118777814138934e-24 1.8831353504364914e-18 8.855681204990398e-13 4.4614427555277216e-07 1.5437061660928635e-07 3.359055759854676e-08 4.505591979291256e-09 2.922056903578707e-10 1.2104456375744012e-15 0.9999999921774179 0.9999999896327945 0.9999999782248605 0.9999999039652041 0.9999899025395838 0.00015022321964798868 1.1314517720280087e-08 5.731801348395037e-13 2.2215641018741015e-17 2.893968981632773e-21 1.344019551882033e-21 1.5317241599885474e-21 1.5926710950678868e-16 3.064289471057606e-11 4.788127673956123e-06 0.5474470314287114 0.49389725388817285 0.40361977074032174 0.29333811017632333 0.18621867895325392 0.10117121209756502 0.045668318690055575 0.01625115806493243 0.004086322173497627 0.0005439767337961168 9.447946380657156e-09 1.4562984416324853e-13 1.981037876253888e-18 2.4162267151689694e-23 3.0487827842637084e-28 2.3979895513956923e-29 1.6675518028976917e-29 1.1715363325299843e-24 5.886911318025257e-19 2.8485974358576584e-13 1.494943452777615e-07 5.110458831821511e-08 1.109297931948486e-08 1.488138109871836e-09 9.615329777555232e-11 4.619030265408555e-16 0.9999999224172437 0.9999999006160643 0.999999810080797 0.9999993258766846 0.9999824762136654 0.0001352293209513667 9.251070920747866e-09 4.261429353722851e-13 1.4919291284154952e-17 4.274881141186695e-22 5.044106471974519e-26 2.57659244935214e-22 6.308692320873538e-17 1.3464929520729003e-11 2.404873250339671e-06 0.33399330963970625 0.29149888716718725 0.22745971973936188 0.1569199924572941 0.09450289452886579 0.048842855146660646 0.021058788529002316 0.007179271141602237 0.0017294516332456908 0.00021984423152313006 3.6780800528401575e-09 5.56172025556238e-14 7.481714506800869e-19 9.065279138420626e-24 1.0060866930537939e-28 1.2034406121701804e-33 6.448277020459762e-31 3.4309349312723295e-25 1.7675994206291443e-19 8.78921728982397e-14 4.7983068574696054e-08 1.6274969653971264e-08 3.5580436253369993e-09 4.830321646492726e-10 3.142522527108011e-11 1.692584536720225e-16 0.9999994492092091 0.999999312947966 0.9999987794392052 0.9999963318566252 0.9999598540722032 0.00012138900151965925 7.52762599518086e-09 3.116722434302372e-13 9.701611355552138e-18 3.451395102686483e-22 1.7081340886256957e-23 8.220510216441977e-23 2.1158035703599987e-17 4.983455128011277e-12 1.0080637334728466e-06 0.16677868177257385 0.1412778154050963 0.10639434040424142 0.0708866040529795 0.041457559767142084 0.020998613971625384 0.008972509142084707 0.0030634482392642073 0.0007433843826649189 9.46367714542134e-05 1.5475975412302038e-09 2.311661998400016e-14 3.0665691134584324e-19 3.660497982223574e-24 4.451590125888338e-29 1.7426071224551847e-30 8.33106890697452e-31 9.618388274053007e-26 5.075204836123056e-20 2.59007742307728e-14 1.4691311340936924e-08 5.002348912604617e-09 1.1268298868983643e-09 1.5876266720785937e-10 1.0630739401866134e-11 6.108745161945838e-17 0.999996986758123 0.9999963108517843 0.9999937934733161 0.9999836626571312 0.9998914836417357 0.00011237050885762132 6.291795039386189e-09 2.334387232615656e-13 1.1745741372182091e-16 2.427972190045604e-17 4.5014236522047566e-18 7.393291367914122e-19 5.985944945090928e-18 1.5179079995130853e-12 3.4422298805922934e-07 0.06656798030126021 0.0551187027467566 0.040750817780821846 0.0268543057339081 0.015702357549277103 0.008067526478440487 0.003560588651920997 0.0012810927066078566 0.00033229933698920974 4.550690688266045e-05 7.496132966442689e-10 1.1083845506412072e-14 1.4492812094858518e-19 7.767948675393229e-24 2.425553562593784e-24 9.493388987001371e-25 3.649107907099392e-25 1.627436320688916e-25 1.366901134869469e-20 7.152457067049279e-15 4.2113058285237595e-09 1.4762461598795375e-09 3.575819174247356e-10 5.469858457872759e-11 3.921091254160055e-12 2.241655103424868e-17 0.999986726476069 0.9999837728084263 0.9999733956549052 0.9999381051408781 0.9993550179669068 9.781548604431967e-05 5.471784154979069e-09 6.498652389062369e-11 2.0638902244158716e-11 5.117702498048603e-12 1.0601882013579233e-12 1.9190065239987847e-13 3.104739674340283e-14 3.679214218114777e-13 9.150106505232957e-08 0.020349073557783502 0.016701502718910494 0.012458123413416084 0.008385993579506264 0.00506817840342174 0.0027385300562738587 0.0013016275336801457 0.0005210938391698373 0.0001568931703134766 2.4790812921906783e-05 4.0262583368179974e-10 6.1283300609500125e-15 7.373890665390533e-18 3.0555654578954968e-18 1.2483112839930595e-18 4.998733916914481e-19 1.9639580271559612e-19 7.553493212624231e-20 3.147995538272046e-20 1.7551109009250444e-15 1.0723778262914236e-09 4.0806024128521737e-10 1.1506434936624171e-10 2.049984770967873e-11 1.6748614255021857e-12 8.730580697688114e-18 0.999951897871344 0.9999396210698256 0.9998986210566077 0.9997897056261625 0.9989392910615812 0.00019288512350122466 1.520096158899862e-05 8.1527444216377e-06 3.1336553157212947e-06 9.144625483859754e-07 2.174995185665031e-07 4.429045198376611e-08 7.932768455695483e-09 1.2558093763317602e-09 1.703247402163861e-08 0.004258035651641019 0.0036053901860893535 0.0029036168917868383 0.002085643450584097 0.0013520137347697836 0.0007950371075520367 0.0004225246284202638 0.00019651159738192498 7.443501093386212e-05 1.8119351685399993e-05 4.336200578657242e-10 7.667389974521711e-12 3.420065372520649e-12 1.4718795262400594e-12 6.172626832964839e-13 2.534380054372733e-13 1.0198298466736309e-13 4.013161704220446e-14 1.5320069698108695e-14 5.867981283902373e-15 1.9823678058507354e-10 9.64150689053648e-11 3.731010042852721e-11 8.482188233232623e-12 8.562697475353875e-13 3.7894066975974086e-18 0.9998563806704298 0.9998024730451285 0.9996334600685887 0.9992464122923608 0.998045738830612 0.9952773840028546 0.9411084327953686 0.6957755512824232 0.35604125481298005 0.13074849129070962 0.03736028955141668 0.008835275722783493 0.0017930435033297327 0.0003158014262845436 4.6759876993164176e-05 0.00026234244391449267 0.00048806095835182017 0.0004783268550799507 0.0003910016665180919 0.0002828168029146511 0.00018678569996014846 0.00011358397422228521 6.356169786344598e-05 3.0256736245003578e-05 1.19490151838384e-05 6.7031192616478435e-06 3.30894225598247e-06 1.5242503770229688e-06 6.761614172996752e-07 2.918924144693329e-07 1.2319931110725375e-07 5.0896130729380815e-08 2.0537618326242752e-08 8.031449576457578e-09 2.981528810674561e-09 9.238765762893978e-10 1.6911577046539883e-10 3.6560978997094067e-11 6.844461299541537e-12 7.386650140306336e-13 2.1732636092406064e-18 0.9996496399168622 0.9993823237587633 0.9985180476772773 0.9968161005929168 0.993658309463656 0.9835745197929983 0.8931951006515557 0.5917523656263178 0.2679390729798509 0.08829959489943542 0.0230761052998957 0.005071981291495517 0.0009712234936882221 0.000164809147555126 2.4678644915246447e-05 1.3414141768811103e-05 3.806941341821134e-05 5.198717854179209e-05 5.1213073237126276e-05 4.293020775896092e-05 3.2601931753997866e-05 2.313497982386501e-05 1.5320923592353044e-05 9.434102152231933e-06 5.0804380029283524e-06 2.9401705210075576e-06 1.408255521800947e-06 6.373279555718851e-07 2.7723718743703636e-07 1.1739027025663421e-07 4.865747927173675e-08 1.9804221962819364e-08 7.926939065641317e-09 3.124111055681804e-09 1.203068260590964e-09 4.478886134532502e-10 1.4512920314344256e-10 4.0175774472953576e-11 9.084457485190873e-12 1.1285622485237648e-12 2.0720254482778857e-18 0.9993132394437753 0.9970128117827637 0.989871036352745 0.9707305013021543 0.9360597762657746 0.8684613091450701 0.6645333455612162 0.34123379486798766 0.12159418715316776 0.033316302886777616 0.00755775747619998 0.001491276212189159 0.0002645263734223793 4.334781163025267e-05 6.799007250744915e-06 1.3688480168843924e-06 1.9434829181023417e-06 3.4160204091272953e-06 4.185724412378116e-06 4.1694704984418725e-06 3.7080794921573112e-06 3.0766178743675002e-06 2.4182066833657994e-06 1.7603941106326764e-06 1.1281615226844444e-06 6.353894109916759e-07 3.1987806194206156e-07 1.4263440692294126e-07 6.097593140161145e-08 2.5325233655982034e-08 1.0324629918105704e-08 4.161235973503626e-09 1.674689374632959e-09 6.835883800362321e-10 2.915191499656986e-10 1.3298982059275824e-10 6.252187641573845e-11 2.6677257526084038e-11 8.214175587115681e-12 1.5936295766141387e-12 2.4438281103513687e-18 0.9988787311146853 0.9689272687240661 0.8599829050244839 0.737558654708415 0.6087138893183819 0.4520944316022501 0.24496199136542463 0.08613969000025382 0.023519546125428524 0.005305759652822816 0.0010404577560367582 0.00018376552273769605 3.0109156691853322e-05 4.730944635875682e-06 7.434821238380484e-07 1.2681851794499097e-07 6.176001168773192e-08 1.0798940568313577e-07 1.6241080076180979e-07 1.945414188803101e-07 2.0434068411004131e-07 1.991467737711587e-07 1.8239392013618938e-07 1.5220244001535333e-07 1.0660191432470728e-07 6.378198662444723e-08 3.174572852944973e-08 1.4268294270066099e-08 5.996705055265166e-09 2.4465077484243865e-09 9.81767128935483e-10 3.9241379893522097e-10 1.590639236781018e-10 6.769143139930777e-11 3.1993525188089637e-11 1.82244896228621e-11 1.1874612337163319e-11 9.641760488385984e-12 5.6133075134406286e-12 1.5253068009138287e-12 2.456387449404918e-18 0.9983347894226599 0.8013644921249077 0.0005560229376800126 0.00033243930231860225 0.0002791871926569605 0.00018182074537617513 7.892771734689784e-05 2.2883898026742196e-05 5.378515953211514e-06 1.0738885065794574e-06 1.9044404080077613e-07 3.0928597488252984e-08 4.722665934700537e-09 6.996880299276659e-10 1.0480716150803226e-10 1.7272498100580474e-11 8.60901992479859e-12 1.5168338783580418e-11 2.2443324931041754e-11 2.6348147109760086e-11 2.709060739814381e-11 2.5821459670029654e-11 2.309857887129862e-11 1.8775966758499968e-11 1.275522415544518e-11 7.364974181295562e-12 3.516381098414642e-12 1.5108764998508705e-12 6.05606803439143e-13 2.351221943411661e-13 8.953355616563883e-14 3.384288301014021e-14 1.2916095119141952e-14 5.147621124073756e-15 2.2591498177588806e-15 1.1877315984741259e-15 6.784540628342573e-16 5.715540324095268e-16 4.086769790969045e-12 1.314350033585689e-12 2.2801982828450875e-18 0.9976420931678559 0.8083889261723909 0.00017076447623690433 1.4412315471730274e-05 1.2675057110153396e-05 1.0539846773336959e-05 8.18737463991797e-06 5.886885332296781e-06 3.8898240698865915e-06 2.3586623793802055e-06 1.3204074745942217e-06 6.912457236950988e-07 3.4443026057405007e-07 1.6643261238265024e-07 7.914959530534731e-08 3.725929991248365e-08 1.736003585044418e-08 7.962433783027288e-09 3.577393310469862e-09 1.5691813785620024e-09 6.705254341000877e-10 2.7845449535369573e-10 1.1182340585955518e-10 4.29728130064617e-11 1.549966062517339e-11 5.082455776012897e-12 1.4545048578999342e-12 3.431634490804183e-13 6.193230258699521e-14 7.518206898678455e-15 4.393367663812668e-16 2.8327079238380676e-18 1.0186818598408425e-18 3.820009193076893e-19 1.6789697864850206e-19 1.4153505238685638e-19 2.9482319483714045e-19 4.201132855169897e-18 2.8142505682217387e-12 8.634209576128172e-13 1.8248334949747584e-18 0.9965269618983528 0.8236641689804838 0.8215565303584713 0.8153688289388215 0.8009195282684773 0.7689764733235045 0.706345262867631 0.6054085754841979 0.4745967880108787 0.33717357186026925 0.21762493380370065 0.12917652376671415 0.0718364829785973 0.03819893054824172 0.019751200784752967 0.010010081637445848 0.004981774177911679 0.002425520685843573 0.001150964718974416 0.0005309724125469329 0.00023776265344941362 0.0001031444474479509 4.315341879356953e-05 1.7238436948902445e-05 6.4520814781472545e-06 2.1928101157568688e-06 6.498658960992417e-07 1.5866980919729364e-07 2.960816724604269e-08 3.708548316790755e-09 2.2050079471661445e-10 4.2640401660059755e-16 7.133669387117924e-17 1.0733303765860872e-15 8.524020593463658e-15 4.459984287875362e-14 1.677065366312898e-13 4.715495379596932e-13 1.6787757864016221e-12 5.086608075920166e-13 1.3387377575185304e-18 0.9944306701157837 0.8725165544657346 0.8385415447460791 0.8261335336256039 0.8061736741678146 0.7679438546345225 0.6975269569133054 0.5888930662464551 0.45308899186722423 0.31492655004367875 0.198262189467955 0.11441843730658552 0.061591436328277946 0.031632809837922 0.015794934292630628 0.007803344019000574 0.0037987999978507754 0.0018180233960961483 0.0008495236543035925 0.0003862339811572783 0.00017065973377097522 7.322783026781765e-05 3.0448077597260042e-05 1.2182479839879498e-05 4.598759922039797e-06 1.5958290072329475e-06 4.781861273079784e-07 1.1792472892949078e-07 2.206350375486175e-08 2.7711911524416425e-09 1.6836699377185024e-10 3.2795006399576993e-16 3.5130973292307834e-17 5.445352110458224e-16 4.389279453505849e-15 2.3188584845221075e-14 8.743959967705099e-14 2.569031948901892e-13 6.281028811763069e-13 2.570810397664068e-13 8.725182435404113e-19 0.9893426861243297 0.893310229199517 0.8546030670513916 0.8303341224810696 0.8014056309977304 0.7512152865617874 0.6669636592506301 0.5465055278294876 0.4055605300256604 0.2702923727388252 0.1620423826764043 0.08822379474001495 0.04435039710382405 0.0211397659380193 0.009976689888728144 0.004665386910409091 0.0022263614210528615 0.0010493074450288779 0.0004818044135109567 0.00021509562268890242 9.348538893459759e-05 3.9664542695433167e-05 1.6488616988680794e-05 6.7461689106677355e-06 2.694617067300944e-06 9.728744156462504e-07 3.1209415375226713e-07 7.849360391755658e-08 1.470829287065961e-08 1.8561205506229813e-09 1.192829293401659e-10 2.381280695468773e-16 1.2367782861347812e-17 2.0926926643644748e-16 1.7733925866891432e-15 9.698350857412187e-15 3.79855343734908e-14 1.1119373722575948e-13 2.533045229289896e-13 1.1342635496535589e-13 4.946056490526833e-19 0.9754509878517593 0.8967366170359768 0.8534077509926548 0.8190210065038751 0.7757634584214689 0.7080624045182773 0.6061617354720276 0.4747600207465186 0.33427084606638197 0.20978962809471094 0.11723716516131696 0.058534914727434995 0.026431544591149072 0.011086557486408459 0.0045183051757754535 0.002124720438494793 0.0010251329848596843 0.00047918735343494527 0.00021669454354713294 9.512310582051735e-05 4.068186013568662e-05 1.7044175728252948e-05 7.062602275961332e-06 2.9380933991247326e-06 1.3000243915951536e-06 6.030677679106316e-07 2.0003048265334486e-07 4.960697907526235e-08 9.020026661654085e-09 1.1361924738414564e-09 7.879701591173277e-11 7.670712685512645e-13 4.5066638386888294e-18 6.62919075353143e-17 6.112691410855637e-16 3.558747783868618e-15 1.4590005213009825e-14 4.4100117916998315e-14 9.574506583172702e-14 4.643064633779739e-14 2.4417225890079963e-19 0.9395442831322707 0.8712187864667441 0.8229685757113273 0.7758089876995187 0.7144433764816294 0.6269423922621055 0.5105349810438524 0.37703367342545197 0.2484968977431577 0.14481424462056713 0.07421161778885031 0.03322570191276708 0.01298437315824483 0.0044497909614723535 0.0013384967194584266 4.458038692936959e-08 3.1888877072115147e-09 1.4157807538324226e-09 6.098998772220389e-10 3.783597848940116e-10 2.0418706326596523e-10 1.0172398184823623e-10 5.043828149723479e-11 2.3400374008982058e-11 1.9474670289846245e-11 2.937253149937126e-07 1.000945723665024e-07 2.387868136951678e-08 4.359674050865553e-09 5.648724559882393e-10 4.423417529525269e-11 1.0878511745182096e-12 2.4967122619445765e-18 1.788066334420733e-17 1.8612580929847832e-16 1.1777271793975809e-15 5.1365760019170624e-15 1.612444617103097e-14 3.484628208582669e-14 1.772486520072309e-14 1.0833231258668423e-19 0.8605366116689405 0.799043296714253 0.7449379184052028 0.6844053485047673 0.606567016201357 0.5060345362599925 0.38782040022679615 0.2675304520329925 0.1636822298319051 0.08787833464590493 0.040963713694415156 0.016285968693823365 0.005330500398753238 0.0014345306617062467 0.00023089479957285645 4.132395828810412e-09 7.055184059675556e-14 3.862792384469663e-15 1.6661435237542264e-15 1.4446056705935121e-15 9.584891315942586e-16 5.628882921206273e-16 3.2000203364761207e-16 1.7881474983981827e-16 1.8279384247227845e-13 1.0312504328091334e-07 3.652613479110024e-08 8.949810490885543e-09 1.6749182684270426e-09 2.329017613124945e-10 2.1342743582353596e-11 9.29718468561133e-13 9.533205874223178e-15 4.146438114758518e-18 5.0790755456337324e-17 3.579057583726429e-16 1.685118921149349e-15 5.573586847249824e-15 1.2266569185005203e-14 6.45301420044767e-15 4.4429568214991186e-20 0.7229804834522001 0.6682892926949635 0.6112433751606245 0.5433917244262312 0.4598338586702934 0.36211509512212336 0.2597404089476402 0.16674024537363402 0.09450457820930655 0.0467293171012322 0.019857485191980762 0.007062716849197766 0.0019927035490532948 0.00040316239217130486 4.589892630222616e-05 7.633209622066469e-10 1.0617543516807438e-14 1.382605642027329e-19 5.088736125343599e-21 5.457870384152172e-21 4.2519854949065755e-21 2.8367354290601582e-21 1.8070376836588425e-21 9.820869969507892e-20 5.086228924622227e-14 2.987258044092954e-08 1.0768684075157682e-08 2.759873964065517e-09 5.486362485962045e-10 8.41557293117952e-11 9.247858810940294e-12 6.184802283966639e-13 2.1507943177752516e-14 3.3697730582250296e-16 1.2438978599314593e-17 1.0068392920807168e-16 5.221058682489033e-16 1.848078982007155e-15 4.234070927413079e-15 2.281874118448248e-15 1.7301083473645953e-20 0.5377089522289632 0.4927904563865031 0.44032318902774653 0.37707136330870134 0.30352774352712614 0.2251300503988689 0.15111219812092683 0.09044689731739174 0.0476892060892329 0.021876550885630872 0.008579549554332825 0.002790024558087174 0.000708812077522203 0.0001248641401796584 1.1316523189140301e-05 1.7289137009018896e-10 2.343646095542568e-15 2.818569311364896e-20 3.244886288447171e-25 2.0798187678366364e-26 1.7947565018960482e-26 1.3054943915645138e-26 5.002230843632071e-26 2.2769792328633022e-20 1.223517815844991e-14 7.473502281997966e-09 2.744683594821035e-09 7.412000834442653e-10 1.6000209139833905e-10 2.7755256235350828e-11 3.70484219125089e-12 3.515994062624122e-13 2.2879735137372967e-14 1.0372908052788738e-15 3.503891851014096e-17 2.803898650902031e-17 1.5569547009314214e-16 5.956362916542432e-16 1.4520512259421498e-15 7.978974695809995e-16 6.545665357326956e-21 0.34444459624351226 0.31228085836558833 0.27205495568728555 0.22413333617553613 0.17164481849020224 0.12017068432239343 0.0758137687973301 0.042597860433811204 0.021098645656239395 0.00910440605377803 0.003362213038259369 0.0010296875695737884 0.0002464817478055318 4.098558355520493e-05 3.5311251595088316e-06 5.0780275479676546e-11 6.668659801396162e-16 7.913628644739448e-21 8.597536339439473e-26 9.520390669325357e-31 7.270181437659213e-32 6.911539284532302e-32 8.144312605278243e-27 4.616697248467655e-21 2.5431939838809557e-15 1.614759065473174e-09 6.08369168505954e-10 1.7620744963168495e-10 4.225082061569161e-11 8.469127745511411e-12 1.3838360035645642e-12 1.7727954668525837e-13 1.7699363414057496e-14 1.405565653437985e-15 9.030315340717861e-17 1.2003681985658207e-17 4.643153406305824e-17 1.9078992181905788e-16 4.951714514197848e-16 2.8006725515677066e-16 2.4541740553558047e-21 0.18664935117960932 0.16726987503863963 0.14207972802217292 0.11275597727876671 0.08241211874485176 0.054757498498314856 0.03272458433283477 0.017444124820424473 0.00823074999349745 0.0034040455429872004 0.0012139105914652439 0.0003620693394687733 8.518605882601746e-05 1.4034721981045134e-05 1.202841255947652e-06 1.6485109885357647e-11 2.1052211178063195e-16 2.4454958357434843e-21 2.613122255297746e-26 2.612833636934583e-31 2.7856526710268854e-36 2.2811785877119646e-33 1.3552035977576464e-27 7.855125842706072e-22 4.432769940772688e-16 2.92414399983771e-10 1.1458380939557258e-10 3.649199704696003e-11 9.99692853309346e-12 2.36847620095456e-12 4.769299228207391e-13 7.991833032206963e-14 1.114618911379641e-14 1.310615351489697e-15 1.307793972215066e-16 1.2965216201229278e-17 1.4522371396353886e-17 6.141325749104557e-17 1.7011351365773927e-16 1.000954394868309e-16 9.278672256227949e-22 0.08459255028391952 0.07494822088029673 0.06215531314893523 0.04766291945222275 0.03342146371936423 0.021235005036580153 0.012144422258749711 0.006222705837474028 0.0028443502966337456 0.001152082075398163 0.0004079521063512782 0.00012279072553581552 2.9646530223535173e-05 5.0812367351505945e-06 4.54011312448668e-07 6.0052706318649624e-12 7.486615407514066e-17 8.467869242149133e-22 8.798627322299293e-27 8.903077933882059e-32 1.172020378569904e-33 6.690022030657571e-34 1.7468821719450215e-28 1.034815297902138e-22 5.978525294881817e-17 4.096262460424861e-11 1.7121237167573836e-11 6.25355663216907e-12 2.040324113152093e-12 5.886689628199948e-13 1.4775192243054124e-13 3.186010204140438e-14 5.913356255369309e-15 9.522867915364645e-16 1.3330712946235847e-16 1.6583370182368325e-17 5.742632914940426e-18 2.013406542719554e-17 5.958009852759101e-17 3.690520077023772e-17 3.592929720619635e-22 0.03179154304315014 0.02786770282049826 0.022615465572544992 0.016827437264266564 0.011393095021229534 0.006983770949674476 0.00386613748957162 0.0019317197206276324 0.0008708548392273721 0.0003532905485968112 0.00012778322695589152 4.024009047742729e-05 1.0444294219630923e-05 1.9680785067767834e-06 1.9663591858780225e-07 2.5761520724744214e-12 3.131487370842432e-17 3.4338560515465755e-22 9.827145434197868e-27 2.1770125348802932e-27 7.275138442569989e-28 2.402472510383185e-28 9.268122849756806e-29 8.401179944428363e-24 4.967300950043576e-18 3.535432869559146e-12 1.6857904647069777e-12 7.861035761820334e-13 3.3251442772452043e-13 1.2321154614016662e-13 3.950408699777456e-14 1.0954876055612775e-14 2.647073510031112e-15 5.620552338103654e-16 1.0500581787021965e-16 1.7216999345098037e-17 3.598193870699811e-18 6.913909249049533e-18 2.1506473348226455e-17 1.4210838374348536e-17 1.4456788403667628e-22 0.00981543328372956 0.008521880386270662 0.006785988321001168 0.004922644293780249 0.003240661479750241 0.0019343552762944426 0.0010487550006838477 0.0005183607802780904 0.0002345101480084945 9.730662802707648e-05 3.689409934357629e-05 1.2565418300057933e-05 3.674449064254609e-06 8.223816212530967e-07 9.76679822839117e-08 1.2396011870180366e-12 1.518018314392944e-17 1.0717383851750504e-20 3.749335727107906e-21 1.297575836821712e-21 4.411786352338843e-22 1.4811605765502411e-22 4.935406343872596e-23 2.168345805053168e-23 3.058915926423856e-20 2.2624285505239915e-14 4.333989146795036e-14 5.0911677752018635e-14 3.754196697305138e-14 2.0070605186476594e-14 8.6563865