# vtk DataFile Version 3.0
vtk output
ASCII
DATASET RECTILINEAR_GRID
DIMENSIONS 41 41 1
X_COORDINATES 41 double
0 1 2 3 4 5 6 7 8 9 10 11 12 13 14 15 16 17 18 19 20 21 22 23 24 25 26 27 28 29 30 31 32 33 34 35 36 37 38 39 40 
Y_COORDINATES 41 double
0 1 2 3 4 5 6 7 8 9 10 11 12 13 14 15 16 17 18 19 20 21 22 23 24 25 26 27 28 29 30 31 32 33 34 35 36 37 38 39 40 
Z_COORDINATES 1 double
0
POINT_DATA 1681
FIELD FieldData 1
Concentracao 1 1681 double
1.0 1.3829440802039457 0.7743234733261595 0.35954145033939455 0.1448770723671861 0.05243148346933367 0.01756225391315009 0.005562740730106162 0.0016868620523855797 0.0004925393528885466 0.00013943431809520756 3.9320686878107245e-05 1.154832099585776e-05 3.544331234175287e-06 1.1502254717233562e-06 3.80133306779552e-07 1.254411276162573e-07 4.0167388881338976e-08 1.1631723856958374e-08 2.966468692383338e-09 6.25026111269428e-10 1.114554407916784e-10 1.7851306885122255e-11 2.6974048254068712e-12 4.016096101964803e-13 6.08028788242255e-14 9.363102848703194e-15 1.4553751731753037e-15 2.237230515705149e-16 3.297640950461737e-17 4.4899426356344525e-18 5.338323858060195e-19 5.396265531687771e-20 4.568230116912377e-21 3.238178514433327e-22 1.9163018120773927e-23 9.250786436987556e-25 3.447420233724431e-26 8.829389434589026e-28 1.1605971638545369e-29 9.284769884575353e-36 0.6904599771649117 0.7450666152084361 0.2328538958001386 0.06599045879212709 0.016066849201993295 0.0035884374324037724 0.0007523244710692205 0.00016126000403004717 3.9340800295387854e-05 1.028493564178657e-05 2.519880898709547e-06 3.128318360560087e-11 8.95811047222032e-12 2.6441364822025335e-12 9.120986426107636e-13 3.0375369023241087e-13 1.0034875709691295e-13 1.3572215151591415e-09 5.558828717832384e-10 3.096584563010812e-10 3.206314456481285e-11 3.5723098320443873e-12 3.072109178862074e-13 1.7019362063236694e-14 3.2019288551186474e-19 4.8432821582449e-20 7.453865937092669e-21 1.1640174687634592e-21 9.198201268485681e-19 3.6591554441466774e-19 1.0308579187536208e-19 1.2170773644973843e-20 1.2344094713461459e-21 7.784966560138614e-23 4.4501302306516734e-24 2.295641630094785e-25 1.0694807854071794e-26 4.111677565450785e-28 1.1105923446079206e-29 1.5247569137389733e-31 1.2392416013936966e-37 0.38370615905837263 0.38343300188149626 0.08973537904081615 0.017304843940266608 0.002814316616143621 0.0004030946541765168 5.3417945483657065e-05 7.821491550405502e-06 1.6170210228573692e-06 4.5499610414696486e-07 1.0112519982633698e-07 1.1861473973093195e-12 6.260502934707739e-18 2.1152905564179286e-18 7.296773706612106e-19 4.49323584623724e-19 2.386747461870891e-19 8.939680640439332e-15 1.8556597242771815e-10 3.992974780572189e-11 2.8866289855855486e-12 1.8881510521859678e-13 9.989830863082808e-15 1.7584950310331225e-16 2.5416062316770516e-25 3.768777435723099e-26 5.936861344361685e-27 9.309656682237209e-28 2.515796842840193e-21 8.148076020741608e-21 3.4298368465914274e-21 8.007322966522343e-22 5.1291440729787283e-23 2.4959249656039653e-24 1.1229264709387919e-25 5.14213309677725e-27 2.363893583069805e-28 9.578224216330411e-30 2.7760326505089523e-31 4.010169440208137e-33 3.321021947611494e-39 0.1746293749457223 0.1647283991598903 0.03290776349356372 0.004865880741075349 0.0005570497616699615 5.145558924438376e-05 4.1778604844610736e-06 4.020643833173615e-07 7.839127831295944e-08 2.8441289161470264e-08 9.328785612854056e-09 8.953687560408577e-14 2.31517698280108e-19 2.4768311366894264e-24 5.837407285820332e-25 7.74586972554037e-25 6.240702748085822e-25 2.7566292166455615e-20 3.294990688562303e-11 6.094667907817587e-12 2.604123027832074e-13 1.2173891380699109e-14 4.2903832869101975e-16 4.9407628007347494e-18 1.9359786818416971e-31 3.0150089647542496e-32 5.172826138851289e-33 1.4138915205131299e-33 4.94750206754067e-27 3.054536844183839e-26 6.467833873949926e-22 6.161349022374171e-23 3.0065437593354756e-24 1.0251631561988365e-25 3.712441237301483e-27 1.543749844240398e-28 7.302992805628258e-30 3.265540999866831e-31 1.0395650896123235e-32 1.6062149659427163e-34 1.3583780840898034e-40 0.06778193118047329 0.06151126729110663 0.010933223917167122 0.0013229371810976037 0.00010893659694713893 5.907605237947613e-06 2.2854959763077542e-07 1.4053285120796752e-08 2.3714223070081355e-09 2.283345961612585e-09 1.0509002336110588e-09 1.7586224968011036e-14 3.4034070493509844e-20 5.711951151970571e-30 1.2611914599258311e-30 1.5740647124374633e-30 1.353941403427018e-30 6.143129604833038e-26 3.2526972152469687e-12 5.545478615462778e-13 2.0382986076932845e-14 7.894511403601466e-16 2.3874197625836053e-17 2.0210729755542262e-19 3.41877099821615e-33 2.9593164770675104e-38 4.883646294486229e-39 2.3253368656887313e-39 1.034133788289015e-32 6.777630251980968e-32 6.807710487373421e-23 5.644512021224964e-24 1.773634430251555e-25 4.512372484138671e-27 1.3106674439731527e-28 5.175257090760645e-30 2.743474958662722e-31 1.4334252171940995e-32 5.3184422158753555e-34 8.817211397447304e-36 7.664356583834267e-42 0.023190330673829945 0.020450665043008767 0.003329092791104416 0.00034974601274443735 1.907720820899782e-05 1.2288492415258507e-11 1.0934208791080048e-12 7.888620476862542e-14 1.4414828481610346e-14 2.4022354240781796e-14 4.3419660655696715e-10 4.310001396214453e-15 7.86047156773603e-21 2.1342037468271288e-35 3.712429283601416e-36 3.921202662522784e-36 2.452035636902046e-36 8.016644396844027e-32 9.857506972943356e-14 2.1171196359001478e-14 1.0547561542993141e-15 5.0428502489545916e-17 1.6687555197249258e-18 1.3882824799310666e-20 2.1844992027677162e-34 4.1936972680588955e-44 8.425342984343902e-45 4.415430737511645e-45 2.1085100777305032e-38 1.3434039099968011e-37 5.149651684932178e-24 3.874102566229176e-25 9.42770368865721e-27 1.7628272432215847e-28 4.010994410922119e-30 1.6112791179254566e-31 1.0871739084949855e-32 8.128620893512682e-34 3.4674946620997603e-35 6.4373289097064015e-37 5.6402704724292414e-43 0.007241661429918223 0.006249214227135823 0.0009551043682936145 8.988194003854787e-05 4.1926825514651e-06 3.961794012432513e-17 4.652701004463448e-18 4.1325077684649008e-19 8.735902721245611e-20 1.4500754781004633e-19 1.3110955894101715e-10 1.2536108362401605e-15 2.1098071884274837e-21 8.402320349552457e-41 1.7506977450691773e-41 1.0316099843652792e-41 3.386057666992053e-42 6.4133027562915e-38 7.363742748545415e-20 1.6310541439711574e-20 3.5802734699806777e-17 3.6206241433292684e-18 1.4512675759409148e-19 1.3917406344754913e-21 2.3302324306739358e-35 8.840036512952302e-50 1.8725099679657563e-50 1.0433453214938869e-50 4.617707603511752e-44 2.544588226608521e-43 3.2304818895017216e-25 2.2040821525783475e-26 4.34195438740473e-28 4.22618693557797e-30 7.443399933934512e-32 2.9432137737141956e-33 4.067809685283869e-34 4.540488718240205e-35 3.3903358889950823e-36 5.870132365762613e-38 5.141532874402508e-44 0.002134276770801309 0.001810412275051271 0.0002636514115279466 2.323166082669122e-05 1.013470998145218e-06 1.534554121195705e-22 2.1480473642063758e-23 2.137568201485803e-24 4.688355360308049e-25 7.386930960517086e-25 3.287664814119201e-11 3.024216569093203e-16 6.603262647571103e-22 1.0693490039687725e-45 8.805258539730104e-47 2.801471488978129e-47 2.7088410781400254e-48 5.130618675005374e-44 4.446968596309416e-26 1.2572058134838812e-26 1.0352632166527262e-18 2.543075613251098e-19 1.8999407360267506e-20 1.744038273184707e-22 3.3636655238767176e-36 2.0013604543436255e-55 6.526043774971235e-56 2.941805820331747e-56 1.1604722530806272e-49 5.131402164680904e-49 1.764981356037714e-26 1.3251163793075609e-27 9.29774693790504e-34 1.0523931557628309e-35 2.1609598663580173e-37 9.041517704115275e-39 1.7074952601204173e-39 8.182294483501807e-36 3.856851189570511e-37 6.490472527078498e-39 5.526842137848712e-45 0.0006137040285218008 0.0005102029051750039 7.108995152226044e-05 5.962139695870135e-06 2.5823182768641783e-07 6.657475390644426e-28 1.0816644185648564e-28 1.1861290642771617e-29 2.4738425568796995e-30 3.2715068777499844e-30 6.587120526294857e-12 6.277356889781253e-17 1.2980763486348978e-22 1.97706510075215e-46 6.153316919628099e-48 2.0353478480597316e-53 2.1670564973510285e-54 4.104484698417556e-50 3.5575683228721944e-32 1.00576290646011e-32 4.6472720001415816e-24 6.48087139290982e-20 2.6601136330224986e-21 2.244741144016263e-23 6.590164789321936e-37 1.5819016902136788e-60 2.4706183847156305e-61 9.913256146961188e-62 3.38833440593255e-55 1.1872796627643403e-54 5.637508050353991e-28 8.929633646967216e-29 1.398377917600259e-39 2.486144681181597e-41 5.908389147022003e-43 2.72673050455513e-44 4.965377804820191e-45 1.1552387313585991e-36 5.205113567715027e-38 7.812937221993342e-40 6.521065691899693e-46 0.0001803035252417007 0.00014553798106350843 1.817519302954809e-05 1.4684503955514207e-06 6.614658826647852e-08 2.565645926070831e-33 7.468618933134033e-34 7.648579218168122e-35 1.404440799556506e-35 1.4175366539182705e-35 9.064756920969914e-13 9.030578597231488e-18 1.991540334696748e-23 2.5576864093336296e-47 6.045029110940186e-49 6.636034490773418e-55 2.4088953976145395e-60 3.283580514441497e-56 3.774857570726892e-38 1.9366716588711698e-38 1.137648490554459e-29 1.0459444345569321e-20 3.921350343587237e-22 2.7082295684657557e-24 7.016869766376045e-38 1.6135010285759173e-61 7.768601063946421e-63 2.8737843443279623e-63 1.566425714027361e-56 6.551631793798591e-56 4.079511674569151e-29 7.794265748320656e-30 2.5789936062953027e-45 6.021771075100933e-47 1.64420427447308e-48 7.880767422676444e-50 1.3647491083022938e-50 1.5295517922609363e-37 6.764260362374913e-39 9.850145541624184e-41 8.074519061564794e-47 5.673691390025824e-05 4.318632013167298e-05 4.9885236027371444e-06 2.3225268434821382e-07 1.808613409386861e-08 3.4115426076481606e-38 5.3210500779563985e-39 5.609576999239808e-40 1.0887694952049849e-40 6.05823756020944e-41 1.909881998223608e-14 8.513936125900689e-19 2.2708645994562812e-24 3.443329291535307e-48 7.490927633353918e-50 7.468473698916496e-56 4.4728732685899913e-66 6.011760404582972e-62 6.988979266913641e-44 4.0640936963735013e-44 2.62149803179028e-35 1.2511227070987411e-21 4.246863192551787e-23 2.386338772281202e-25 4.26123068700742e-39 6.376656309265122e-63 2.3129560027187318e-64 1.3004438984244484e-64 1.0179581915544627e-57 8.186407504725563e-57 4.6064134617210605e-30 9.435654881459478e-31 5.88746319385363e-51 1.6490200433364912e-52 5.065116032266731e-54 2.3940103399343745e-55 3.8067083192847018e-56 2.0008327743511274e-38 8.747085584652624e-40 1.2491162833776934e-41 1.0128218067762283e-47 1.89662044765119e-05 1.623227709245843e-05 7.237937627707268e-11 2.7233608638704233e-12 2.199787974003145e-13 3.963003378602365e-43 6.146694706347484e-44 2.0730902136585137e-40 1.516862871986206e-41 1.837240869937813e-42 3.976757732369069e-16 3.3669595906625436e-20 2.0464033993183357e-25 4.1281839726820534e-49 1.415465206105069e-50 1.2762263333060955e-56 1.314930365926748e-71 1.5740899164935638e-67 1.824466815288286e-49 9.91261754521171e-50 5.748141531854873e-41 1.212048441800265e-22 3.657723608217178e-24 7.198406634774294e-30 1.292476254642977e-43 1.943544049052261e-67 7.081586200017109e-69 3.9969183194762705e-69 2.7418497366479764e-58 1.1993953052641628e-57 6.653489667637468e-31 1.4275468413379819e-31 1.3896253209190471e-56 6.2919718361510824e-58 1.7793675877287859e-59 8.258342974008538e-61 1.1565496824999077e-61 2.6728332590014862e-39 1.1472201573760211e-40 1.5591336523544038e-42 1.2575634372163972e-48 6.753584935885439e-06 5.894962369282314e-06 4.268907019705412e-16 2.6811746960738658e-17 2.176666920838381e-18 3.694115839059187e-48 4.685954703748796e-49 6.115418762250835e-41 1.3671957642018364e-46 1.1572698085209632e-47 2.4999312653750926e-21 2.0588815525339435e-25 1.7458113775188566e-30 1.3637142906597222e-49 3.0225856939603694e-51 2.7304620773527737e-57 4.056281435000358e-77 6.479237061066158e-73 5.69158436825484e-55 2.7836512150836235e-55 1.4360534623707853e-46 9.862558522207212e-24 3.027671562232711e-25 2.133398822071846e-34 3.830783009818178e-48 5.763210010399141e-72 2.101609099648972e-73 1.1876080708047763e-73 4.868919516930144e-59 2.0126387933520595e-58 9.236831351101618e-32 2.7680110589689754e-32 1.0101661769933105e-61 2.6965996943830957e-63 7.361207629362858e-65 3.152855728289415e-66 4.776295552868388e-67 3.978272728390772e-40 1.3660193451335951e-41 1.9022937477347226e-43 1.5298684321057204e-49 2.45336415158165e-06 2.151702525261588e-06 2.8604877598330118e-21 2.1288341026857374e-22 1.8734395953317308e-23 3.0104558201282696e-53 3.2211942623789606e-54 1.7608877369520327e-41 5.8772711841436644e-52 6.88177421480132e-53 1.4400509588025855e-26 1.2167496557747897e-30 9.4049768625328e-36 3.448922418436041e-50 6.829793337132216e-52 7.13128472634936e-58 3.955643915477533e-82 2.573929430552675e-78 1.9490179176399658e-60 9.481632887220051e-61 3.271808700274968e-52 4.492839836467822e-25 3.0522620432027373e-26 6.348374221250421e-39 1.1401594072369081e-52 1.715309400819033e-76 6.254197552425692e-78 3.533738598653647e-78 6.539109052628931e-60 2.639606735126184e-59 1.2291105846845237e-32 3.442274420816568e-33 1.220492083669481e-62 1.4901523917532874e-64 3.265136718055676e-66 1.3366202198429378e-67 2.753276081414133e-68 3.038482309706707e-41 1.5736092855225507e-42 2.2254741822404512e-44 1.8144720755255515e-50 8.90294182450344e-07 7.855946736335171e-07 1.9247505127838363e-26 1.6431478931915303e-27 1.5511564319632758e-28 2.3365151764086007e-58 2.121527295074675e-59 5.075338404154626e-42 2.8903078967472137e-57 3.559645270024963e-58 7.784579163586151e-32 6.40030775218731e-36 4.507592100629943e-41 7.841815771905016e-51 1.4966031578052308e-52 3.8430255545548964e-63 2.4724973532268967e-87 1.1416861608077524e-83 7.587101345064058e-66 5.808028817328054e-66 9.081958834951815e-53 5.659740751044939e-26 3.960994489468545e-27 1.855954941903802e-43 3.3435307505308977e-57 5.04491559281316e-81 1.8444320706669865e-82 1.0446827585825054e-82 6.298486742421044e-61 2.613142176060067e-60 1.2669877316999277e-33 3.645797516992802e-34 1.152028837219152e-63 1.2957429007419736e-65 2.4894093628940134e-67 1.0226023267049778e-68 2.3062743713644125e-69 2.99612431316277e-42 1.7032342066562186e-43 2.5950881799628467e-45 2.1443773191657985e-51 3.140148814668355e-07 2.850821701487315e-07 1.1325156320016005e-31 1.519962250901489e-32 1.3350367594486146e-33 1.9096634482033103e-63 1.4438580647967161e-64 1.461198736334255e-42 1.4419084566138071e-62 1.7716252162202672e-63 4.063681550816503e-37 3.2250962450036937e-41 2.0403957719066146e-46 1.724766913440951e-51 3.2551609375510163e-53 1.2978611688622881e-68 1.043586443214361e-92 4.839126578791129e-89 3.0489378549240185e-71 2.1146939010387198e-71 1.6305271225984793e-53 9.742171404619028e-27 6.273815502576376e-28 5.2080304439094344e-48 9.416447268022574e-62 1.4263579648117728e-85 5.23582093918265e-87 2.9778854017710164e-87 3.002750363551755e-62 1.4941693613997152e-61 9.907275129480992e-35 3.261631325924703e-35 1.1150909161551302e-64 1.2919802026463993e-66 2.479153408091275e-68 1.0266725725762164e-69 2.3952900561329034e-70 3.2716791798276712e-43 1.9668152047960664e-44 3.0938522165687778e-46 2.5886020143744895e-52 1.0068673267585585e-07 1.0758700079530951e-07 1.7594931832750235e-36 1.5252657212772487e-37 1.2813817323397302e-38 1.6357260821713026e-68 1.3078915787483536e-69 4.328521678077355e-43 5.288319829411912e-68 9.647147702150268e-69 2.1165151820666766e-42 1.685360640075111e-46 9.47881098020334e-52 3.79353583533355e-52 7.121868939897152e-54 4.604012694950662e-74 3.958096483089579e-98 1.82124536776376e-94 1.0655992035500278e-76 6.48700992167958e-77 2.232220630511855e-54 1.2788037728864238e-27 1.2167364014050414e-28 1.4207109295044463e-52 2.575325914209128e-66 3.9061139118086613e-90 1.4347839254562156e-91 8.163940265766026e-92 2.2784561065046256e-68 4.7414180510874853e-63 5.329026623397689e-36 2.5349209398787638e-36 1.1687037819741461e-65 1.4730657613659945e-67 3.014443748302873e-69 1.2278635050221887e-70 2.866388774520718e-71 3.964753778717843e-44 2.4252896741022108e-45 3.8722782206991924e-47 3.256653286077003e-53 2.862044548162185e-08 2.8646114310685098e-08 4.256956202378126e-37 1.6093961813454652e-38 9.243661292635882e-40 9.816808729680965e-70 1.0381404548513197e-70 6.723504030631086e-44 4.097672722040346e-73 5.085559552428022e-74 1.1536205574240194e-47 9.032129286397292e-52 5.880803026236189e-57 8.523101514310584e-53 1.484002717300392e-54 1.6713412841490796e-79 1.4598185929405976e-103 6.614005366964148e-100 3.32849261254303e-82 1.597174476664321e-82 2.0574543528910007e-55 1.2851975444648226e-28 1.2173632322155015e-29 1.4746106671226827e-53 1.022867990274787e-67 1.0887732365416222e-91 2.741054559029624e-93 2.5114328713136705e-95 5.568570009567963e-71 3.124818393420539e-65 1.4871018885543575e-37 1.6841641919063379e-37 1.1217841776967674e-66 2.324333255620446e-68 4.2520635175731895e-70 1.68041820537682e-71 3.814928834940816e-72 5.2277674952011753e-45 3.1963920565725117e-46 5.116160955215712e-48 4.308568049765094e-54 6.78578799109558e-09 6.4841585662331445e-09 7.942162775031575e-38 2.4558048902386632e-39 1.058205208728986e-40 1.005515843279872e-70 1.0639316678414141e-71 6.944867663041945e-45 3.1048408056957295e-74 5.905733263509939e-76 3.8842659796139927e-50 2.1849682483161816e-53 3.852737370336215e-58 1.2702171021658094e-53 3.0887208521700725e-55 5.309495876719061e-85 6.635132002551132e-109 2.4327525597320012e-105 9.7218250497729e-88 3.1906665255074315e-88 6.355895400411148e-57 5.278516636774792e-30 7.398218429489246e-31 8.089772613314163e-55 5.777140969025213e-69 6.888981065004709e-93 7.78890153518264e-95 2.009142495395971e-101 1.385110413658496e-76 1.0531219032243955e-70 5.8662916956066816e-43 1.076476326383654e-42 3.1527932317715016e-67 4.0193608088535684e-69 6.90897153351535e-71 2.5135831771219753e-72 5.4997127932048565e-73 7.37641060423163e-46 4.467287014687381e-47 7.124525903083407e-49 5.994801760694467e-55 1.3713677831159975e-09 1.2653545612515404e-09 1.4189364613390728e-38 3.793842247073182e-40 1.441412123569704e-41 1.2454211320379737e-71 1.333200697644248e-72 2.476945684873846e-50 1.0842057559405906e-79 2.181213722484871e-81 1.3747134503523014e-55 1.1196584958653947e-58 9.060043063103544e-59 2.039552790881192e-54 7.109171602270373e-56 4.683461718207854e-90 3.1384001642816094e-114 9.701284347166283e-111 2.9832277527235537e-93 3.570157551135429e-94 4.6361607123889195e-63 6.401010230526767e-32 1.813933108771562e-32 2.4177160407493604e-56 3.1454064510088933e-70 4.962353213051285e-94 9.550253598044447e-96 3.9201878690330206e-107 3.5644034122220497e-82 3.458016960278931e-76 2.2862004608775873e-48 4.256151866372943e-48 6.5584895304216335e-68 7.902858654462063e-70 1.1643281449224329e-71 3.988701388447141e-73 8.364680325030341e-74 1.0966191453939053e-46 6.558840691140175e-48 1.0399443361307185e-49 8.735637919663535e-56 2.479962360479165e-10 2.2430518214360235e-10 2.37690997461262e-39 5.909866679536834e-41 2.0878559128014726e-42 1.7231386691200495e-72 1.798836585352121e-73 5.416420029513738e-56 3.433232328510323e-85 7.314015477686295e-87 4.901106998896587e-61 3.804583597317955e-64 1.5732744657151456e-59 3.465572924179263e-55 9.862585404819891e-57 5.811739501006493e-91 1.0303479087083328e-115 1.7159525846260664e-112 7.358140788708908e-95 2.844420492837168e-100 3.7089178557563367e-69 1.528850814843997e-37 6.422383687935791e-38 9.85311191463977e-62 1.9796418689588707e-75 1.3560981789143527e-94 1.6120880017037937e-96 1.0965274852387162e-112 1.0914873973510132e-87 1.1706721620049972e-81 8.194621003496826e-54 1.499350698096648e-53 1.1989356857882455e-68 1.409567829141872e-70 1.983377818087492e-72 6.4678363493130705e-74 1.3171940360862385e-74 1.6945632254524182e-47 1.0026608681047196e-48 1.5810847736334975e-50 1.3259155705040162e-56 4.12711476124609e-11 3.690706061298669e-11 3.797024467542226e-40 9.088822866535857e-42 3.1143905929798305e-43 2.5358686342862094e-73 2.649833912722358e-74 1.3828832264173024e-61 1.0253652845872898e-90 2.3886014631334455e-92 1.604321829978439e-66 1.1606978942569935e-69 2.2733080291626195e-60 4.591491374036056e-56 1.085221831227987e-57 3.137730904084573e-92 3.4641398347660076e-117 2.664974456398868e-114 2.833643779355141e-96 1.7487840004953187e-101 8.974736352349718e-75 4.087521340164633e-43 2.229199857176432e-43 3.956793627566087e-67 7.979897822909753e-81 2.9469002076319443e-95 3.394210724564617e-97 3.615017003342295e-118 3.7538275437572737e-93 4.293772172100234e-87 2.9412004610670967e-59 4.981722091861936e-59 2.0281153683634063e-69 2.372537097375521e-71 3.291522829267777e-73 1.0559946468691202e-74 2.1184525734612326e-75 2.6967046384580983e-48 1.5848027945647391e-49 2.4899510053745378e-51 2.085691132236861e-57 6.429846280710097e-12 5.716765482378813e-12 5.797978835617367e-41 1.3676162438429115e-42 4.674152861531309e-44 3.8833192805932326e-74 4.2224911141082417e-75 3.8671637192554764e-67 3.229272673600204e-96 8.104968498974323e-98 5.215308278737676e-72 3.3539402605550034e-75 2.922405327781636e-61 5.752491785656402e-57 3.5467075601093276e-63 1.214107926874229e-97 1.5332202782632637e-122 1.2627645027298778e-119 1.989769097896935e-101 5.113030651676346e-102 3.0325507404409652e-80 1.481311180359807e-48 8.136097434742292e-49 1.4752442556099932e-72 2.8658879188671264e-86 5.794949607750591e-96 6.978689092028473e-98 1.1193495034889822e-123 1.6741232024177544e-98 1.7017855564107644e-92 1.1350627934541925e-64 1.6886970794020697e-64 3.182455387946512e-70 3.775522269154262e-72 5.348004707138313e-74 1.7270049687056182e-75 3.4628310156779105e-76 4.397168930254375e-49 2.5785142582781654e-50 4.045835406124029e-52 3.3875044128252784e-58 9.449709655375388e-13 8.37808125307722e-13 8.445018567205639e-42 1.989159287987844e-43 6.86555355981017e-45 6.031914724590875e-75 7.214308225459604e-76 1.0220646491157072e-72 1.3113366731549094e-101 2.978238398217471e-103 1.8178400631068597e-77 9.974580690852658e-81 3.614992912466417e-62 7.014249870737505e-58 7.145886277880174e-69 4.1226075796925245e-103 6.253668360602944e-128 5.949608439220819e-125 9.548450487157565e-107 1.3920830752093757e-102 1.4425763708354434e-85 6.007280193107696e-54 3.264349304076818e-54 5.425924074862126e-78 9.40637892860869e-92 9.265150244228594e-97 1.52215736560885e-98 9.349393773567877e-129 7.631617222201387e-104 7.346230321749062e-98 4.682338081332106e-70 7.167470076979351e-70 4.1345278451809505e-71 5.77934230271005e-73 8.632696600619459e-75 2.8470276539953645e-76 5.7563395428408784e-77 7.336572860204416e-50 4.309705115360248e-51 6.7683452412923515e-53 5.668421662577623e-59 1.313302995672402e-13 1.1618350384398552e-13 1.1664533202555735e-42 2.743766856884481e-44 9.677711576346049e-46 8.50207683835099e-76 1.4395382682488747e-76 7.579365476947069e-78 5.799225238639685e-107 1.2379880331080283e-108 6.78778417231611e-83 3.700951855257095e-86 4.4504957108175524e-63 8.163540376306728e-59 1.5742340195953304e-74 1.3442119691312098e-108 2.4928253507514294e-133 2.575096319063505e-130 4.292769636380097e-112 3.8101244001176963e-103 5.711421185657963e-91 3.0980560854630325e-59 1.4045770512876639e-59 2.072476385629027e-83 2.883984630034628e-97 1.0666763959866419e-97 1.5963417886980257e-99 8.524840720742701e-130 1.0805482146830169e-105 2.628298189218981e-100 1.3403298596853064e-71 4.3593908061266695e-71 5.668741152097437e-72 9.05002477428226e-74 1.4209738330648938e-75 4.775073174586462e-77 9.76440877643681e-78 1.2532833454450548e-50 7.397652975827769e-52 1.1650424352262552e-53 9.766436267390972e-60 1.7280851514069487e-14 1.523273369703704e-14 1.5152538630171115e-43 3.5375247162358504e-45 1.2406577607740544e-46 1.135031091028031e-76 1.814125415511445e-77 9.032321158175294e-79 2.7644162413354635e-108 4.024509057506715e-110 1.9061066901202714e-84 1.6062046495077402e-87 3.226212246618941e-64 1.007942539859591e-59 3.861205674334041e-80 4.733487572825776e-114 1.0722085703190174e-138 1.1116633925622713e-135 1.6548549914795766e-117 9.724668456007997e-104 5.247830323870036e-96 1.655405159186617e-64 6.585744806175812e-65 8.250903646419262e-89 9.73110061820996e-103 6.506164111636426e-99 3.118860144498563e-105 2.894853265731857e-135 4.37684736807233e-111 1.065559479437884e-105 8.366548131249323e-77 1.2101803482903366e-71 9.765433376860572e-73 1.549469657319943e-74 2.4154733165798708e-76 8.203668936284412e-78 1.694387093734723e-78 2.195117446820674e-51 1.3050414158110923e-52 2.0647587001516063e-54 1.7336427832068208e-60 2.1627197888787713e-15 1.891993161882793e-15 1.8440121517030475e-44 4.177852304201809e-46 1.4273122511076606e-47 1.2652219059362727e-77 1.9245746575085043e-78 7.850324459734632e-80 2.002432971152858e-109 2.1345976062367006e-111 8.630372618185754e-86 8.333270696182047e-89 2.764912920191792e-65 1.3811676243289166e-60 8.458795197059572e-86 2.5413938000027925e-119 5.21390631046752e-144 5.1696512641258326e-141 6.293715532382946e-123 1.3689411516729817e-104 6.238355999456246e-97 5.037044436041201e-66 9.491788355426412e-67 1.3646686726776922e-90 3.7388414501251964e-104 4.820649382582446e-100 5.274416005472043e-111 9.229334373401096e-141 1.6433236281397622e-116 4.436754537335168e-111 3.369192669371e-82 2.529111286758471e-72 1.9503397429030247e-73 2.754868749676067e-75 4.233314594589756e-77 1.4404374959870922e-78 3.0090865236882853e-79 3.946021216918448e-52 2.3699925568915786e-53 3.774516844109101e-55 3.176620455534741e-61 2.6091723688876623e-16 2.2523664891916506e-16 2.103600089860923e-45 4.484285686538788e-47 1.4147862681423377e-48 1.1761452108933885e-78 1.680096927991804e-79 6.601100849704661e-81 1.551440757471965e-110 1.429202711962246e-112 4.525814964288572e-87 3.2928990932498293e-90 1.1846243883730089e-66 2.646400477192138e-61 8.809398052119427e-91 1.3731577210095094e-124 3.607161388269488e-149 2.6869619613737675e-146 2.39487369201261e-128 5.815030684191055e-106 2.953029386839889e-98 1.5103995838522456e-67 1.3353837706095261e-68 1.9710613579275803e-92 2.117947523130433e-105 5.0723484674977903e-101 1.6789454152921347e-116 3.267170188676632e-146 6.402030127875794e-122 1.7350290563479377e-116 1.2391161314304992e-87 4.6709032671838194e-73 3.54761833112942e-74 4.914376461523221e-76 7.471558401592273e-78 2.5699676689604952e-79 5.460555756912587e-80 7.2882559724068175e-53 4.440472129379358e-54 7.138181411971041e-56 6.02667108777702e-62 3.1078496771170797e-17 2.6350558674620997e-17 2.3179117404059798e-46 4.2369327551269836e-48 1.1645598338971212e-49 8.314531284895062e-80 1.1675468619306483e-80 4.999679440350936e-82 1.4299489695776176e-111 1.247842382334284e-113 1.1084589994505678e-92 1.2266652193153648e-95 5.964075147729665e-72 1.448630532512565e-66 8.145087613466754e-96 4.262049693812335e-125 3.599376232400758e-150 1.695684806410643e-147 1.0812822195944238e-129 1.588855232886666e-107 2.991295224598089e-104 3.8456457204530326e-73 4.6313582256767015e-74 8.443589719596883e-98 1.5784932616902537e-110 1.6609915135101662e-101 7.064631140233073e-122 1.407881784561338e-151 2.747865378817278e-127 6.899830592197229e-122 4.307397076799374e-93 7.863199315559748e-74 5.999669202165325e-75 8.420060088395464e-77 1.3088418127218975e-78 4.62643361331513e-80 1.0117502511096956e-80 1.3857857823823529e-53 8.614684893336338e-55 1.4024939862766227e-56 1.1892377313702964e-62 3.752193883759912e-18 3.1871201299206583e-18 2.545317751476453e-47 4.080263218602092e-49 5.836374397058151e-51 3.401302599343881e-81 4.5262586447735755e-82 3.25189076120683e-83 1.2703032362067485e-112 1.8115242324033574e-114 2.4899238654167022e-98 4.2361476503646956e-101 2.471381241708961e-77 6.937163123699294e-72 3.4119601790208386e-101 7.291269157944111e-126 5.300030276711987e-151 1.538233854441814e-148 7.824562416696605e-131 9.889010526131688e-109 4.181881358039593e-110 9.013934490747158e-79 1.490179835750827e-79 3.516399917114192e-103 7.538210390504482e-116 5.154015489742095e-102 3.3315203771398595e-127 8.021776708212343e-157 1.3140218892858239e-132 2.9404169219671806e-127 1.506807168852189e-98 1.1768432921525998e-74 9.236466394217532e-76 1.371888936439008e-77 2.255972329419591e-79 8.386236156110155e-81 1.9166974779149935e-81 2.7227610401962205e-54 1.73933134412237e-55 2.879888406623468e-57 2.455934594495781e-63 4.687529013399379e-19 3.907793971252714e-19 3.6343357699428355e-48 1.8495734532203384e-54 2.2565652668486355e-56 1.441736881190373e-86 1.9833057358797328e-87 2.0134916435996687e-88 3.3254748606224815e-113 3.2271522755398243e-115 7.453807806766228e-104 1.428846639894969e-106 9.155931978666971e-83 2.5488410708913885e-77 1.1186407018080787e-106 8.728797794462488e-127 5.927698145964957e-152 1.5265568661024969e-149 6.997604921017152e-132 8.601005734074443e-110 7.293349809114424e-116 2.210065327405138e-84 4.499729844875774e-85 1.237837751118804e-108 2.79515581224324e-121 1.4972343773113206e-102 3.6054631034648223e-132 4.930952036493574e-162 6.984246579733217e-138 1.3377061471910764e-132 6.006104846267418e-104 1.3285827061101252e-75 1.249488357274331e-76 2.1213977952286439e-78 3.829888960863648e-80 1.5346277357765584e-81 3.728420762743804e-82 5.5599384580703256e-55 3.680305701761874e-56 6.22782173762795e-58 5.349855241576761e-64 6.007154092572114e-20 5.078872350214558e-20 4.882332452713197e-49 4.045116033603564e-60 7.790984108400983e-62 5.3574700561831116e-92 8.137066878778829e-93 8.121983331932048e-94 7.222424265436292e-114 6.848476262513982e-116 2.510581080877238e-109 4.982081106817774e-112 3.2488767759037867e-88 8.141475629978803e-83 2.84129314716396e-112 7.640046765518212e-128 5.256452784054663e-153 1.4011987433041774e-150 6.9808008465092155e-133 9.532928669998424e-111 1.5875533139506546e-121 5.776207022062381e-90 1.336594713628405e-90 3.647646618002033e-114 8.225553737679709e-127 2.3875034524409445e-103 4.933041930812749e-133 1.865990557638613e-163 1.7983236389524733e-139 3.5795738950053276e-134 2.7055048478860625e-105 9.83528672993253e-77 1.539789911782145e-77 3.1438219143485327e-79 6.455344622520403e-81 2.8525711484649863e-82 7.495939004683097e-83 1.1888511001074832e-55 8.231043499009392e-57 1.4316578846521855e-58 1.2412209588808088e-64 7.791625815750696e-21 6.666769643103159e-21 6.57277780690204e-50 9.73777659574204e-66 2.3006689728054587e-67 1.8074957034341064e-97 2.86895462