# vtk DataFile Version 3.0
vtk output
ASCII
DATASET RECTILINEAR_GRID
DIMENSIONS 41 41 1
X_COORDINATES 41 double
0 1 2 3 4 5 6 7 8 9 10 11 12 13 14 15 16 17 18 19 20 21 22 23 24 25 26 27 28 29 30 31 32 33 34 35 36 37 38 39 40 
Y_COORDINATES 41 double
0 1 2 3 4 5 6 7 8 9 10 11 12 13 14 15 16 17 18 19 20 21 22 23 24 25 26 27 28 29 30 31 32 33 34 35 36 37 38 39 40 
Z_COORDINATES 1 double
0
POINT_DATA 1681
FIELD FieldData 1
Concentracao 1 1681 double
1.0 1.0 1.0 1.0 0.9999999999999999 0.9999999999999998 0.9999999999999998 0.9999999999999998 0.9999999999999996 0.9999999999999998 0.9999999999999996 0.9999999999999996 0.999999999998691 0.9999997797037696 0.9999995508479974 0.9999993248350094 0.9999990981937873 0.9999988769156782 0.9999986435424677 0.9999984410750503 0.9999982273443149 0.9999979909439733 0.999997408137967 0.9999925665563335 0.9999618506308131 0.9998366434027348 0.9994465213134084 0.9984252904579454 0.9959990118658753 0.990471851919213 0.9780341385280548 0.9494961582803564 0.888038894464958 0.7732158963497641 0.6005836742826092 0.39836900284416604 0.21510159898581283 0.08847508024592639 0.024603431954347714 0.0034537433256398007 2.9003814281835377e-08 1.0 1.0 1.0 0.9999999999999997 0.9999999999999998 0.9999999999999996 0.9999999999999996 0.9999999999999993 0.9999999999999991 0.9999999999999993 0.9999999999999989 0.9999999999989456 0.9999995403929894 0.8780639457104308 0.8625671282018891 0.8605537747514825 0.8604807512970487 0.8697268531104152 0.8811089606499086 0.9133804964657593 0.9287304349406751 0.9385637908192356 0.943894433568609 0.9458748576797793 0.9452939552553118 0.9417444095244822 0.9372502430779505 0.9358613120888047 0.9346096305640865 0.932722039413924 0.9274362902177673 0.9069919265860662 0.8521209332723394 0.7414089330901136 0.5735569069229913 0.37882847158719335 0.20422293316663997 0.08421299983207844 0.023582700260959145 0.0033439036270425325 2.802761353129616e-08 1.0 0.9999999999999999 0.9999999999999999 1.0 0.9999999999999998 0.9999999999999994 0.9999999999999993 0.9999999999999989 0.9999999999999987 0.9999999999999983 0.9999999999999978 0.9999999999935071 0.9999970445922255 0.0015287453801687977 7.995908334883467e-05 0.00014412033043811429 0.00022760914861374843 0.0006994000870220706 0.8810824700480188 0.8923695998189116 0.9045558959693955 0.9124897875401234 0.9177740600459404 0.9195036995141601 0.9182669061706749 0.806298289911355 0.7872659040981398 0.7847191463779447 0.7841078666614056 0.7952867710709335 0.8069711687615392 0.824573381874551 0.7862674740399438 0.68364731999039 0.5248586612962439 0.34463440959479635 0.18637481687137616 0.07805556544853277 0.022414908262688 0.003285620273603272 2.734928037025958e-08 1.0000000000000002 0.9999999999999997 0.9999999999999998 1.0 0.9999999999999998 0.9999999999974938 0.9999999999925568 0.9999999999852717 0.9999999999764633 0.9999999999687378 0.9999999999661843 0.9999999999574813 0.9999957310657119 0.0010877928501270078 5.184373735801862e-07 1.4268867576650003e-08 3.615085595214428e-08 7.100254219097523e-05 0.8810395792248255 0.8882498032127119 0.8946103093006949 0.9001877164580696 0.9043408948104094 0.907061758006175 0.9000552934104723 0.00036013833910390487 4.479270768023921e-05 7.167564655007873e-05 8.505625876077007e-05 0.00017718753239498878 0.7967131048868195 0.787222951776448 0.7321057570755343 0.6188000108452302 0.46218090140631973 0.29939452261617605 0.16338656902720514 0.07046591944914603 0.021284829021821224 0.0032994563803194683 2.7037407529865007e-08 1.0 0.9999999999999998 1.0 1.0000000000000004 0.9999999999943159 0.9999982263206489 0.9999966140301988 0.999995107233562 0.9999937462833942 0.9999932909663282 0.9999945533057001 0.9999971624538083 0.9999938262248056 0.0010664537898436397 4.894029890186153e-07 1.4006404155024143e-10 2.4126184429194293e-09 6.446305549711692e-05 0.8809262625768305 0.8851544368415094 0.8891121595518805 0.892874183412786 0.8964397274710988 0.899086883753765 0.8895977857654424 0.00022896101947757295 3.033100444630067e-08 3.848016622751121e-09 5.815102709385743e-09 2.1844065069763176e-05 0.7573052265923654 0.731638525938132 0.6512771139656006 0.5221118253129042 0.37425416901219305 0.23966844100543558 0.13415481425469195 0.06198117360178807 0.020082889726746544 0.0034184975160204047 2.725066708583423e-08 1.0 1.0 0.9999999999999998 0.9999999999968978 0.9999979572400725 0.0009441319078277054 0.0006153916613468797 0.0007095681091907961 0.0007557922567665277 0.001384857006677476 0.9999724695565259 0.9999863855965646 0.9999900429773239 0.0009457320555856421 4.2298722102932373e-07 3.4075590603902023e-09 4.455615086671021e-09 4.335067334805671e-05 0.8249833674302895 0.8326849890184314 0.8430465785499395 0.8548696759357529 0.866833300269535 0.8772205299135125 0.8723566576778906 0.00021876112163445518 2.6956953807885483e-08 2.3292524380803102e-12 2.418775533996234e-10 1.5406232866247692e-05 0.657303890378584 0.6100569659110084 0.5087815949632292 0.3767779393774375 0.25536084624542543 0.16395897507464038 0.09894236399547005 0.04966754987781631 0.018864102778829963 0.003547237561671946 2.7539390709188957e-08 0.9999999999999999 0.9999999999999999 0.9999999999999997 0.9999999999903935 0.9999960526011797 0.0008015955356284212 4.61081009741833e-07 2.3542820487386902e-07 2.897677669005893e-07 9.432316236519617e-05 0.9999526279814924 0.9999807477485585 0.9999862159928761 0.0012329982635898662 8.367075986144875e-05 8.080180503800864e-05 7.903168658496715e-05 0.00015438580190813724 0.6055820887562473 0.5807205232053274 0.6279073077457286 0.70376406963523 0.7669192082739894 0.820703634820671 0.8453888352283799 0.0001986807562598247 2.5543452029245716e-08 4.522174194959403e-10 4.914348792366438e-10 9.44927654755489e-06 0.4982408619198924 0.43180984579795245 0.3045181804797113 0.18898432680935026 0.11756826152195927 0.07498415910298123 0.05354709487999027 0.037197338620543245 0.01612681343195933 0.0034053076347207887 2.6678798226050887e-08 0.9999999999999998 1.0000000000000002 0.9999999999999993 0.9999999999796917 0.9999941528614846 0.0008663622003177253 3.5217244047119704e-07 1.4423138097222464e-10 4.2635286648676646e-09 9.146053095151818e-05 0.9999289360835318 0.9999700374652252 0.999983049750538 0.9999603542383744 0.9999453532740941 0.9999370101912719 0.9999328605216817 0.9999224797565212 0.6066186083558075 0.5055140693855172 0.5199388210174325 0.5609682903072012 0.6647544018589263 0.7483662619042734 0.8051864262798478 0.000289562552913589 2.571850779447551e-05 2.3058027927183476e-05 1.999705626281513e-05 2.098480769748116e-05 0.3212361797937967 0.2766437982402176 1.5944888390013354e-05 7.465530699533231e-06 4.804046359517661e-06 2.938019096145261e-06 2.8938704777739525e-06 0.02739651985378186 0.013212189811572326 0.002675733040853184 2.3256160397036948e-08 0.9999999999999997 1.0000000000000002 0.9999999999999989 0.9999999999644141 0.9999922068933775 0.0008965612467205568 4.052056272563235e-07 4.155760789107888e-09 7.750848274259037e-09 8.827508473443506e-05 0.9999015588981625 0.9999541779736261 0.9999699634695126 0.9999653127883765 0.9999611688935479 0.9999550513261944 0.0011258678043764459 7.758605677846038e-05 4.623952502832816e-05 3.6875624449691725e-05 0.00022904756706386748 0.5601174438038347 0.6132865699584836 0.6848463955343996 0.762547443579204 0.7562437925297988 0.744848636872781 0.7273504728739638 0.6992358741262886 0.643405320602519 0.40093032325237266 0.20089473395471477 5.710643755745088e-06 3.419365777867986e-10 1.5228331847453354e-10 9.597692148345976e-11 1.419910917114675e-07 0.018056781375379253 0.008695987190721005 0.0018472489642120812 1.8445929851954764e-08 0.9999999999999996 0.9999999999985459 0.9999999999931869 0.9999999999346476 0.9999914118680011 0.0014663642365414058 9.164774854619048e-05 8.974020943750894e-05 8.727795332118622e-05 0.00016576617309921695 0.9998681475450294 0.9999224201961832 0.9999476431204968 0.9999550057168207 0.9999571714708498 0.9999485661394519 0.000732499725921465 2.3793120839628625e-07 2.4049867369549653e-09 4.1792039339657435e-09 3.0432425200236588e-05 0.5581580532512453 0.5959127211543065 0.6411179388376019 0.684562314324606 0.7024129194971785 0.6966410413492584 0.6852035067948486 0.6658630741717011 0.6242699381189137 0.4589241313417447 0.21084865657949028 9.450320602969499e-06 2.924328380124444e-10 1.1333494735156802e-14 5.501031901552908e-13 8.321319721316359e-08 0.011273738760266641 0.005298835956030738 0.0011006825240505384 1.3296324971720127e-08 0.999999999998655 0.9999994458083143 0.9999970670354879 0.9999956160992075 0.9999907408450366 0.9999716944440616 0.9999598965723653 0.9999480640127699 0.9999241334373473 0.9998985622216606 0.9998885094162793 0.9999002637602881 0.9999171698860115 0.9999325424972486 0.9999414444654449 0.9999344261858739 0.0006865762719603537 2.0643413344761333e-07 3.727437865185247e-11 7.339279922175301e-10 2.7150614360605103e-05 0.5538232562666324 0.5801249697151649 0.606326065683876 0.6211333003546939 0.6238626636511165 0.6193696153658752 0.6160136668660295 0.6119893464304 0.5943261381908229 0.4760609340265648 0.2314373574115903 1.3211282794518349e-05 5.652801628928686e-10 1.9950852910680327e-11 8.193419644547865e-12 4.731313473227778e-08 0.006808271928021102 0.003090108661675586 0.0006091157726004421 8.846464466971568e-09 0.9999997826202507 0.8635596815631049 0.001813227109782203 0.0013650751700825553 0.0014180908450950108 0.0013387568161671954 0.0014023401457104753 0.9999209572974342 0.9999200830790264 0.9999105716936725 0.9998975629636455 0.9998833119619877 0.9998810593226115 0.999888718198791 0.9999134426042791 0.9999130143525198 0.0006139237013802964 1.824006810912889e-07 1.7610561006403498e-09 2.1864543778148147e-09 2.309883460368856e-05 0.5434566404908722 0.5592799373017091 0.001026730862254583 0.0008667775191988538 0.0008077933446982962 0.0007482985094916852 0.0007136379927415322 0.5965427590519823 0.5734225356585281 0.47378314460900933 0.2662083750995697 3.177823770183066e-05 3.13288551652533e-06 1.9687047086413314e-06 8.732492848842307e-07 5.15691652748402e-08 0.00404171051472896 0.001721186643164147 0.00032246378909945466 5.488444332459096e-09 0.9999995596365343 0.8458699080745372 8.120390393489674e-05 7.905502239676253e-07 8.219949761916119e-07 7.264086336810545e-07 8.703437222191486e-05 0.999903187425367 0.0010481428104899776 0.000628664455266998 0.0005852462875591314 0.0005424532126474676 0.0008139395513777904 0.9998587365357114 0.9998816833647765 0.9998857250682363 0.0008110894329166362 5.969530289196747e-05 5.761913977299769e-05 5.5743293640066375e-05 7.206436467768352e-05 0.5181136828106981 0.5253144038989173 7.087767686881518e-05 7.057277403070252e-07 6.152027878861775e-07 5.400642450426863e-07 1.3976441485228602e-05 0.5650932413419701 0.541187365128742 0.4620987156943223 0.28994776523475513 0.2637806717496166 0.21732671491495328 0.15427140657938326 0.07945609885605476 0.0027556780551105014 0.002046094351109608 0.0008865395459675273 0.0001624418579992325 3.190687793488602e-09 0.999999340065376 0.8434235833559665 0.00018436516486623525 2.472145612653704e-08 2.8048043763281624e-10 3.823342819065967e-09 8.44947315877405e-05 0.9998894163433906 0.00016293285892125345 2.0041748332430964e-07 1.600500045522555e-07 1.4795552407310834e-07 6.605648156925404e-05 0.9998227991816284 0.9998473455886725 0.9998551590245436 0.9998075081688353 0.9997521223911068 0.9996796209785667 0.9995813401276683 0.9994286158000169 0.8682297938718839 0.5555792132545251 7.857824689061118e-05 7.704228081724974e-09 3.485738438600917e-10 4.4912716692510945e-10 1.0835795276038083e-05 0.5119360703511024 0.48878660268787805 0.429569465061686 0.32490405624452423 0.26418786377870696 0.21308208441131898 0.1491462059923671 0.07788191511134025 0.008361329700644156 0.0008254029021389751 0.0004261302245687706 7.891120871587804e-05 1.7468529101967234e-09 0.9999991199093272 0.8432685089027228 0.00028543669946142847 5.7445451522903684e-08 2.7476958013724203e-09 5.335789996209701e-09 8.252717830451994e-05 0.9998799206115533 0.0001875557898917682 1.910997816703722e-08 2.937736165686803e-11 2.0907804303353235e-09 6.316156885574269e-05 0.9997647711582553 0.9997876907592551 0.0005436224590806424 0.00047964845605806566 0.00032992485704761825 0.000280380049100801 0.0004782848653857044 0.999187723117312 0.9323438504682046 0.6200555922615486 9.63042264072587e-05 1.0318482743258709e-08 3.026844045042269e-10 3.2405583974293583e-10 7.648128574668409e-06 0.421782223823334 0.4049822504767021 0.3681563383513104 0.3038950521147491 0.2475890390752299 0.19440029924186614 0.13635341523439043 0.07388302513089261 0.017590654241653222 0.0015830742492035862 0.00023733957936846028 3.82370194650915e-05 9.181845394359877e-10 0.9999989049695835 0.8536166613968277 0.0008215968260273132 7.39014457596468e-05 6.841779640894093e-05 5.5416640118083186e-05 0.00011479237500803261 0.999871512588773 0.00017645254884656448 2.1487850332251716e-08 1.2074919839510082e-09 2.8699686132788492e-09 6.0327739709399575e-05 0.9996689959270723 0.9996834662913239 0.00026498194222073824 1.1929368787217179e-07 5.400682008324698e-08 4.3507998500804485e-08 4.7967269647858394e-05 0.9983485300190398 0.9420051130704913 0.6892180838910255 0.00011732196421958739 2.0990289249372928e-05 1.7858256164506203e-05 1.45375271848294e-05 1.4970808858072632e-05 0.2487817431268239 0.2532896359599235 0.2558501376357073 0.23540962496552847 0.20397855934914974 0.16490216258987775 0.11849225726880454 0.06744402571663241 0.021708589429845934 0.0033269059182512222 0.00030678950786077255 2.4875455377648558e-05 4.928370673296826e-10 0.9999986783547393 0.8663238510994066 0.8662974765900276 0.8662555280556692 0.8661762142394738 0.860144370779585 0.5991944789748875 0.6323011111780247 0.0002901456793042514 4.187057202028393e-05 3.818628663204298e-05 3.3881140664998234e-05 8.172322250491796e-05 0.999512170375949 0.9763850204057246 0.00027380207520411785 4.097011895648789e-08 9.935861186624596e-12 1.016679510406852e-09 4.2893013187229274e-05 0.9950389561019318 0.950598511480871 0.7390094010906254 0.7278004925235192 0.7063470230967727 0.672251599752541 0.6220769832813765 0.5549415496905421 0.47058790845813375 0.32283117117542476 0.24756634971490202 0.2035040364384246 0.170828563367052 0.13942723887710062 0.1017028446823638 0.059695547643705965 0.02240161837970492 0.004551688855946809 0.0004933662011200252 2.8202320088616117e-05 3.132277910668694e-10 0.9999984815482171 0.9023243889984416 0.8787731386388721 0.8742053073959541 0.8709590611326592 0.8624254054274171 0.5886587540061761 0.6314220918946982 0.6312790330230417 0.6310044120913233 0.6305408657481469 0.6291643350513892 0.5936814133555812 0.9919949399178002 0.976082229113277 0.00025931952199721275 3.961526315791894e-08 7.71851242039121e-10 1.3552693320287474e-09 3.52156810504742e-05 0.9742992857658334 0.9437557557359514 0.8377901870096526 0.7776187099328274 0.7428484319641736 0.697207519929432 0.631717579933781 0.553288695854052 0.4582317405298527 0.36398525764397305 0.2809021703628169 0.2191763793281234 0.17963948237449717 0.1323135520624951 0.09096542630626012 0.05235510510042936 0.021046858689133106 0.0049953440082518485 0.0006398687513579258 3.7337212427451015e-05 2.62993958618032e-10 0.9999982737009335 0.9192837336222478 0.8920146796310181 0.8808985420625647 0.8749756201544685 0.8642190164277782 0.6263018939490138 0.6277058475285042 0.6278693031509658 0.6260449942887564 0.6231063618099006 0.620606185604712 0.606451194954223 0.9044341921145933 0.9685709337094798 0.00042237237983551733 3.92391977930149e-05 3.531385819855703e-05 3.097229989968076e-05 4.4080242340179436e-05 0.7020309515532845 0.7185077991392205 0.7171480384226714 0.696448086376869 0.671979758661663 0.6367953025488645 0.5675239887710504 5.400132729478513e-05 2.3338663236779125e-05 2.213662562936037e-05 1.7998841798353405e-05 2.2737529991551066e-05 0.1582373830660415 0.12113243151360156 0.07935321104226381 0.04471216320079491 0.018425239794672796 0.0047704957972227995 0.0006853206670865959 4.346077992080715e-05 2.60555723812693e-10 0.9999980532148678 0.9302435778074337 0.90051956738717 0.8863870456761871 0.8781177035206139 0.8654984872307899 0.6423476379844104 0.00021128210742897704 0.0001738276618078494 0.00016951728733597535 0.00014705874416767034 0.00021843900235109435 0.6018283498016813 0.798130556775097 0.9357759035713202 0.9343882461925987 0.930732366693898 0.9232132327407867 0.9080853499323878 0.8810921996164446 0.5658698810240704 0.5284331470337603 0.5093493582016733 0.49290999236591093 0.495178484533369 0.4974619081363615 0.490370775713114 4.11157864903516e-05 2.906766849552709e-09 9.897952537123235e-10 8.946788781586719e-10 1.316796665059031e-06 0.1296665513204469 0.10003737674357228 0.06568263863436509 0.03631530055169108 0.015149765992057395 0.004123017900215566 0.0006390884966913223 4.3581287035218336e-05 2.605814462054209e-10 0.9999978202787626 0.9370326118308191 0.906648880883066 0.8905200525503117 0.880674978335325 0.8659765260362969 0.6538062103563265 7.112878483111885e-05 2.7087436651475396e-08 2.211136565640888e-08 1.9352932610188542e-08 2.229203653624398e-05 0.5930519908089216 0.7540696987357948 0.8502191454395879 0.8862367764970103 0.8862692743081764 0.8783999415340473 0.8645810055584302 0.8212029427451623 0.00013027232761010234 3.685973158435751e-05 4.754433591177764e-05 4.9486871637415735e-05 8.27766936180478e-05 0.46892623924515253 0.4439222410544814 3.706553254611506e-05 1.983661298583178e-09 1.1663854652556558e-13 7.5695383194753e-12 9.55824096306496e-07 0.1009014015225206 0.07771061533563549 0.05101416137795466 0.028071238280936366 0.011783412092440953 0.0033124178654366067 0.0005405943411702372 3.896149098210087e-05 2.4670695963406416e-10 0.9999974571648081 0.9418085730588166 0.91127698687396 0.893930684893728 0.8828972282100168 0.8660542572838278 0.6607205174053994 8.577747254437959e-05 6.203266371280445e-09 2.2761944436209277e-12 3.9982119539693794e-10 1.95327090174056e-05 0.5778784974263724 0.7109262614107137 0.7987305188615949 0.8111534147990175 0.8063245387432564 0.7885131631492436 0.7769142481967677 0.7625132046684793 0.00011044943031363008 9.925470482279329e-09 2.9732188440556574e-09 3.5009862248269604e-09 7.020586477175015e-06 0.42853553148809864 0.40027641176975065 3.1248770217116875e-05 1.7577612706019991e-09 1.842842133576591e-11 1.744722164790475e-11 6.620419292184081e-07 0.07500630691195052 0.057608750143355855 0.03784975137959389 0.020810662624504726 0.008790925288768119 0.002527764865549597 0.00042819784928865807 3.218542457580533e-05 2.1926537578961538e-10 0.9999953539142281 0.9455695140726731 0.9152327332505261 0.8971070962847639 0.885162162711492 0.8663479976274698 0.6667734973881742 9.360030162796349e-05 8.150781472981209e-09 3.5493336528417416e-10 5.280975976620388e-10 1.6532190976706133e-05 0.5531924293559416 0.6797989939618889 0.00014161798926073761 0.0001358079047097393 0.00014296606265312614 0.0001366581065945094 0.0002031530395627364 0.743750801910997 0.00011895059941449903 8.630494824501636e-09 5.88314614320591e-13 6.501363441622094e-11 5.7685709664059745e-06 0.38147530586590256 0.3565139488053111 4.162340145584956e-05 2.7912239956757933e-06 2.1172118614286905e-06 1.5329509928784154e-06 1.3805917195978779e-06 0.05297774327531019 0.04087733455703852 0.02717085572950697 0.015003825320500947 0.006380007686865466 0.0018672965740839094 0.00032553783712342135 2.530616212808532e-05 1.8466594479574202e-10 0.9999781492670617 0.9488707061888508 0.9189926913022337 0.9004177645171343 0.8878373208183935 0.8677168774099892 0.6926758869712707 0.00019505486001076148 2.3548687687001852e-05 1.9002652756898185e-05 1.3426808898858909e-05 1.9892006334638836e-05 0.5179791965256466 0.6367554492406414 5.6984408786599076e-05 1.5052898748434348e-08 1.4106377753069379e-08 1.4813253156848216e-08 1.6261472509917477e-05 0.7204639030166393 7.501611904696523e-05 5.485937251042183e-09 7.100339419769091e-11 8.813747931745013e-11 4.4181418306160195e-06 0.3212723671197121 0.31505224763738965 0.282973581131697 0.23932489390264017 0.19575515169400512 0.15317832276375148 0.10388956382107636 0.03450720434545862 0.02808096534465943 0.019120592370384812 0.010649153898633428 0.004560267371314183 0.001354985340048224 0.00024202702979646707 1.9373180350080884e-05 1.492782675284658e-10 0.9998685180683959 0.9518619837798911 0.9226709983367815 0.9039787854011546 0.8909142464226698 0.8713345724445868 0.7214757225228497 0.7124449867004669 0.6910065054607984 0.646604639716339 0.5543689238799624 0.3375117271156553 0.5039060739480375 0.5826463632834306 6.443017524094193e-05 4.579481287067657e-09 1.2581382786780486e-12 2.1181886677908965e-10 1.4766765185642813e-05 0.6947586611063037 0.00011264797374687914 9.103195139014967e-06 6.504971399809033e-06 4.2380083412924606e-06 5.214524658485245e-06 0.24064584633010125 0.23193757821223973 0.21270463991124916 0.17647147379121386 0.14124802780539272 0.11417595979818577 0.09150037851002273 0.04267366654139234 0.022345778482131963 0.013732828813033279 0.007537943086628141 0.003238810314023284 0.0009757607449747542 0.00017833807703702094 1.4686282758155477e-05 1.1724864158998835e-10 0.9993356143799543 0.9541634522200938 0.925829787922531 0.9072171666910015 0.8939773256829519 0.8748126848657591 0.7826986615439366 0.7360866096023554 0.705595812651367 0.6533000394799556 0.5575143643000626 0.3651353213707294 0.38774369619119015 0.5127972741342726 6.355659586115867e-05 5.4721239564403885e-09 4.765461227320042e-11 2.1071568659729177e-10 1.321724561725629e-05 0.6633989661951881 0.626620943000039 0.5492461129116392 0.4469557531442973 0.33265627365425976 0.2063029523317893 0.1383649141575449 9.837061095070698e-06 1.0248193328158521e-05 9.469775187781416e-06 7.0759784074404095e-06 8.924211165224253e-06 0.0766240433689702 0.04347649696146908 0.019554753462597572 0.010321362023289688 0.0053804661731034886 0.002299860605566736 0.0007022253241224457 0.0001315187408401511 1.1168179908531043e-05 9.046571470953686e-11 0.9973223438060552 0.9544340350015666 0.9268080285341503 0.9082859665985344 0.8945626384729364 0.8760751708559221 0.8122808273135386 0.7610470294329198 0.7129656551522755 0.6492821779748262 0.5521919412655146 0.4069687062702348 0.3450874929906222 0.4164753812585932 8.987691703623808e-05 5.05405639535403e-06 4.216937789352902e-06 2.9693096237628967e-06 1.1979637986373153e-05 0.5866126677067982 0.5523586585416844 0.47476254550814223 0.37716942452901764 0.2808524268800538 0.18744269747170905 0.10456447903444858 4.852037569727887e-06 5.301377265875334e-10 3.798746953943979e-10 3.010731255157542e-10 4.629728940647429e-07 0.05872027913125109 0.034564700548784154 0.01622602230519102 0.007858206229241263 0.0038781859920872298 0.0016398584878216963 0.0005081119536027678 9.790761666281595e-05 8.618271543547513e-06 6.927984992944516e-11 0.9913908405787984 0.9495562497095255 0.921804446674131 0.901997061342341 0.886224571604438 0.8659830013145543 0.8182780998687179 0.7653492310938895 0.7072532688360988 0.6270303194316801 0.5068984453395119 0.396655749394466 0.328182958141887 0.35657684522154465 0.3407439223871509 0.32185516676909576 0.2868250427948426 0.224166210472995 0.14055212851640853 0.2720390406416983 0.29762846187115494 0.25875093688524253 0.20104872011118338 0.1525941927554876 0.12567766218957932 0.09724147400204143 5.620574278223735e-06 2.227075996836746e-10 2.027879320306498e-14 2.0256164282012237e-12 3.13807550069271e-07 0.04237847948989884 0.025452499383716163 0.012404799638912209 0.00591119029891608 0.0028142917605230742 0.0011803717156470017 0.00037240922207923925 7.428537189986188e-05 6.831990002710628e-06 5.321807474457965e-11 0.9777299310687804 0.934881711624993 0.9033118386662143 0.8772710802597359 0.8511421524749113 0.8215886119328654 0.7809719672095373 0.7351842778226063 0.6767831181678088 0.590985700754287 4.9770238826964545e-05 3.148939158140164e-05 3.2120119362775534e-05 4.1088140466626934e-05 6.859323348061392e-05 0.30019376015555294 0.26768073904243445 0.20555244999819317 0.12740897847938698 0.1074116381054812 8.052801517004021e-06 1.0334129648574552e-05 9.906838349109024e-06 8.486155650260447e-06 1.2102331572443439e-05 0.08493280831333744 5.2707418573532296e-06 2.1327136248390322e-10 9.316545931871319e-13 1.6770746739102337e-12 2.005089311045192e-07 0.02886299498017714 0.017737406824134983 0.009069781714279992 0.004387133602567374 0.0020639612815548285 0.000865209341447677 0.00027942544585849214 5.813524274298625e-05 5.642732504874875e-06 4.149218699179549e-11 0.9525293558165638 0.9067499495220939 0.8597364593152342 0.7800591509411929 0.7001123232848527 0.6512156573358541 0.6118143844518177 0.6028215519422772 0.591619576912573 0.5447578550170649 4.1225080938018216e-05 3.6217938879678177e-09 1.949940829593691e-09 3.1096779375355736e-09 3.523865730800732e-06 0.2544087415101626 0.22589487765404467 0.17207295703040007 0.10509022716041307 0.06560499512803705 2.4803667900795186e-06 3.7007168442506223e-10 3.619253546379564e-10 3.7856705453717573e-10 6.176340102751094e-07 0.0729192972563299 5.4636846609829815e-06 2.6040306465959305e-07 1.5286602285452158e-07 7.952620773730249e-08 1.5118050298664735e-07 0.01821003473548177 0.011669292482054337 0.0064210550473142265 0.00324364333837906 0.0015435228866375983 0.0006538621867573408 0.00021754696561248412 4.759633454964863e-05 4.932334950817923e-06 3.328902796569145e-11 0.9137343115128137 0.8609316925270669 0.7150952004463854 0.00014591890549774057 8.347097056045183e-05 7.841513493865998e-05 7.148845455106406e-05 0.00010848923854399136 0.560529578001764 0.5088690712086288 4.1831750470812664e-05 2.322761902531911e-09 1.9421715164280392e-13 2.3777976367369233e-11 2.3904600505436647e-06 0.19212156776554012 0.16916656070113778 0.12926793864860792 0.07979688245441176 0.04407395478428515 1.9290414029759193e-06 6.711245112467269e-11 1.2643045724885008e-14 3.4788873456177526e-12 4.979263688243646e-07 0.061241415830379335 0.05023898824127181 0.03528502208472233 0.022172827942600608 0.012374521470494863 0.00549891221884412 0.009616068067823806 0.007094140363873936 0.004385300793013684 0.0023917881363282965 0.0011838934006298037 0.0005152131604190878 0.0001782049963755613 4.137266560022298e-05 4.635684209775484e-06 2.792335484802706e-11 0.860056233549585 0.8038402948446656 0.6537567227343507 1.792872916275962e-05 6.295561112218151e-09 5.666909943215758e-09 5.560194308723697e-09 9.336798124588002e-06 0.5183689504033484 0.46609058550549975 3.696703146447994e-05 2.1544774671589926e-09 2.3886583393796184e-11 2.6988402517926265e-11 1.361453785423814e-06 0.12356399070855525 0.11000660617133917 0.08760252709701352 0.05795526153332465 0.03137942900651025 1.4333236602218038e-06 5.570433956355109e-11 3.358099438432005e-13 2.324893655553771e-12 3.207627178957276e-07 0.04223510917119578 0.03536078670405303 0.024829665411579452 0.015725892036009433 0.009058656089668243 0.004454316944307772 0.003997259680180676 0.003800112689347111 0.0027978075308934367 0.0017219622356763654 0.0009213401589955431 0.0004233591595031417 0.00015479340734052247 3.862243199039671e-05 4.747554361603341e-06 2.491243098750402e-11 0.7912334268759169 0.7375606817373788 0.5992522547171006 2.5637384497083527e-05 7.970461709404867e-10 3.145564026330845e-13 9.58483522684776e-11 7.822415047624403e-06 0.46926275259242667 0.42352612185159993 5.122079833139326e-05 3.6446807188150017e-06 2.5758781755027483e-06 1.7120495873687084e-06 1.5958359811047386e-06 0.05495103045069398 0.05378458765105648 0.05034613450896496 0.03936100251306916 0.024782671946530912 1.738919728256331e-06 8.231483184091161e-08 5.564484969546375e-08 3.650406171606782e-08 9.96409517293022e-08 0.011320750721629717 0.010021361792646288 0.008813517785284514 0.006440656818802384 0.004379748357094109 0.002704469265999491 0.002065259389506819 0.0019493374130616667 0.0016594861075827359 0.0011792981117469967 0.0007079788212196961 0.0003561922541774889 0.00014153957482004355 3.875152818084476e-05 5.328076579215666e-06 2.3996715573190296e-11 0.7068917973923783 0.6594871243038665 0.5386712971552913 2.7000757102770473e-05 1.041550053264315e-09 2.2404567015464757e-11 8.218510765911313e-11 6.191711467598994e-06 0.4066013131526114 0.3826932719450608 0.3456406665654528 0.2871110146904908 0.2229155097886907 0.16279837964930888 0.11160057163864352 0.0676768387091942 0.03741707009458497 0.02922723761655002 0.024171816158355293 0.019447906713528803 0.015681066349309783 0.01163976043913961 0.008244634203943092 0.005662475581501767 0.0038152571684354148 0.002287790901874621 0.001471348287954762 0.0014928890002988409 0.0015492820628681971 0.00141880532814765 0.0011618091369207009 0.0009860547829229848 0.0009619545512643199 0.0009156235829871366 0.0007534235542875988 0.0005208146248090461 0.00029721797600481924 0.00013287157757290938 4.1125880256364575e-05 6.496318108337185e-06 2.5106867411551835e-11 0.6060149825660223 0.5699327444478911 0.48093424685398534 4.479919017161704e-05 3.790069793380045e-06 2.3273618396717214e-06 1.2993122172946082e-06 4.999833887841747e-06 0.32012029163018346 0.3039754365197294 0.28020305897169884 0.23155493905438415 0.17716422011831864 0.12738051433626402 0.08614559657359677 0.054189038576819726 0.03239746146533418 0.02096725592943492 0.01575428758548154 0.012840086873576776 0.010621188233876507 0.00788767840424685 0.005533048427900286 0.0037401808834829136 0.002432064323200898 0.0014911833108318124 0.0008693933814467709 0.0005567173034657558 0.000448513106833551 0.00042679491989430963 0.000414295988087916 0.0004078274985129955 0.0004337386509465826 0.0004620233783509314 0.0004405792530010548 0.0003565566553432886 0.0002375377390047054 0.00012362433491250349 4.476666486846488e-05 8.403276739250025e-06 2.8266567370757607e-11 0.4876904372653926 0.46011032347413316 0.4221332127792211 0.36777572508268197 0.28287156156108473 0.19540664193304735 0.12223293070101729 0.06814841691419449 0.11109239997188561 0.1558085358729418 0.15360113846457837 0.13302650759573853 0.10262468062594303 0.07376037617913152 0.05029720979038367 0.03304061558428034 0.021295559934