# vtk DataFile Version 3.0
vtk output
ASCII
DATASET RECTILINEAR_GRID
DIMENSIONS 41 41 1
X_COORDINATES 41 double
0 1 2 3 4 5 6 7 8 9 10 11 12 13 14 15 16 17 18 19 20 21 22 23 24 25 26 27 28 29 30 31 32 33 34 35 36 37 38 39 40 
Y_COORDINATES 41 double
0 1 2 3 4 5 6 7 8 9 10 11 12 13 14 15 16 17 18 19 20 21 22 23 24 25 26 27 28 29 30 31 32 33 34 35 36 37 38 39 40 
Z_COORDINATES 1 double
0
POINT_DATA 1681
FIELD FieldData 1
Concentracao 1 1681 double
1.0 1.0 1.0 1.0 0.9999999999999999 0.9999999999999998 0.9999999999999998 0.9999999999999998 0.9999999999999996 0.9999999999999998 0.9999999999999996 0.9999999999999996 0.9999999999986933 0.9999997800500979 0.9999995515103975 0.9999993258049193 0.9999990994719191 0.9999988784947448 0.9999986454389366 0.999998443247223 0.9999982298762561 0.9999980036131902 0.99999776845521 0.99999752540895 0.9999972756899391 0.9999970158020465 0.9999967435668624 0.9999964734062026 0.9999962053879404 0.9999959389498335 0.9999956741482289 0.9999952764648048 0.9999927590055804 0.9999570127445979 0.9995424270289877 0.9962620579679169 0.9782051678712713 0.906948675382714 0.7066147426341001 0.3374732443404847 1.1227373012845737e-05 1.0 1.0 1.0 0.9999999999999997 0.9999999999999998 0.9999999999999996 0.9999999999999996 0.9999999999999993 0.9999999999999991 0.9999999999999993 0.9999999999999989 0.9999999999989474 0.9999995410886502 0.8782556406324695 0.8627569326767057 0.8607434980355128 0.8606704846191535 0.8699040130537798 0.8812706430829081 0.913498293340195 0.9288273585046682 0.9386473578630558 0.9439712326648955 0.9459553575263218 0.945431654517391 0.9420824247425927 0.9381047324571864 0.9379062354076916 0.9392588071675418 0.9428426924593086 0.9503788242256442 0.9575322309345056 0.9649691000249022 0.9705681436341709 0.974726173544558 0.9753398251068802 0.9609415422818399 0.8940215219276049 0.6999117624036386 0.336741846343411 1.1195418404618136e-05 1.0 0.9999999999999999 0.9999999999999999 1.0 0.9999999999999998 0.9999999999999994 0.9999999999999993 0.9999999999999989 0.9999999999999987 0.9999999999999983 0.9999999999999978 0.9999999999935164 0.999997048809987 0.0030984306400279418 0.0001641194373784838 0.0002967755196914477 0.00047307505297162854 0.0014699951518130675 0.8812441739293034 0.8925159611431355 0.904685691101638 0.9126088314591521 0.9178869679849602 0.9196301603912571 0.9189369011572097 0.807274618959623 0.7889267675183096 0.7878210214391973 0.7899427095983448 0.8060037022024878 0.8258175586470827 0.873008325469741 0.9004499980429891 0.9204159192336802 0.9344802137922397 0.9428250542218475 0.9353043566289952 0.8767072774999233 0.6940977195723873 0.34008079178935163 1.1245546030918739e-05 1.0000000000000002 0.9999999999999997 0.9999999999999998 1.0 0.9999999999999998 0.9999999999974961 0.9999999999925622 0.9999999999852822 0.9999999999764799 0.9999999999687614 0.9999999999662106 0.9999999999575201 0.999995736269815 0.0022288229208905458 2.168631308577373e-06 6.086845656143854e-08 1.568756737984413e-07 0.00015582563921089708 0.8812012942757141 0.8884017530243092 0.8947536341153007 0.9003236666784784 0.9044751582462626 0.9072541710328237 0.9054556148105426 0.0010077059680603617 0.0001274237471490989 0.0002151344867945647 0.00027128330628199086 0.0006179990694420674 0.8257897216342073 0.845839252755559 0.8701354504709249 0.888753843467031 0.9038844224797012 0.9141641048936111 0.9102567719909666 0.8598653105011816 0.6926376426128322 0.3490069312167634 1.1399913044435785e-05 1.0 0.9999999999999998 1.0 1.0000000000000004 0.9999999999943207 0.9999982278600519 0.9999966164254466 0.9999951106338499 0.999993750686912 0.9999932966286915 0.9999945579026939 0.9999971648487109 0.9999938332296685 0.0021984289531835474 2.0719263914475863e-06 1.2133454718281457e-09 1.2671906139119226e-08 0.0001489305367559346 0.8811175388131169 0.8853444781214718 0.8893060181374093 0.8930827219208936 0.8966975128863998 0.8996728554111089 0.9009047275153667 0.0007027571672744621 2.566799573877575e-07 3.21857889965203e-08 5.6318434118684756e-08 0.00010043933984114002 0.8257493497150317 0.840297425972154 0.8558131410738069 0.8701758921000012 0.8820279951898586 0.890147345715889 0.8871882300293243 0.8460685795801207 0.695947220736205 0.3659085025697149 1.1685000230406549e-05 1.0 1.0 0.9999999999999998 0.9999999999969006 0.9999979590130155 0.0018112274656616662 0.0011891358885562414 0.0013822905844326884 0.001484337275721182 0.0027397916025466646 0.9999725041172001 0.9999864020297905 0.9999900544868632 0.001963694145969537 1.8171237068587971e-06 1.66463893293738e-08 2.4758458215746812e-08 0.0001264446135114198 0.879525768956375 0.8813127146321083 0.8836743131832977 0.8867513660381143 0.8904662403657603 0.8944147671145614 0.8979817687758017 0.000723183003373295 2.5646603550312056e-07 5.962001125362409e-11 5.332503358876834e-09 9.227338063623559e-05 0.8256558861295806 0.8371431076067355 0.8482800192862695 0.8577763774244126 0.8639635152443388 0.8669049801162579 0.8634721327695246 0.8311346405615612 0.708087405966135 0.3883720873643934 1.2077519113702545e-05 0.9999999999999999 0.9999999999999999 0.9999999999999997 0.9999999999904012 0.9999960557670665 0.0015555728188134733 1.729267782286465e-06 8.92933572132076e-07 1.117384847840044e-06 0.000191558720832358 0.9999526644717108 0.9999807675317886 0.999986231902592 0.002576764716741389 0.0001809893127602221 0.0001767451668357383 0.00017500555982624926 0.0003551851083336814 0.6065577764508953 0.5820501516227276 0.6388029053650394 0.7253866375130781 0.7933133569907592 0.8468043370566672 0.8823580921682237 0.0006953429592956834 2.659117134188182e-07 6.3243448082632365e-09 1.0192071013484863e-08 8.241999956045192e-05 0.8250232002317821 0.834685059764961 0.8423548197565065 0.8379176473909486 0.8286921757289206 0.8175187351949893 0.8149792649374049 0.8052468347441901 0.7090449610817815 0.40860323217245126 1.2504655856953393e-05 0.9999999999999998 1.0000000000000002 0.9999999999999993 0.9999999999797083 0.999994157623613 0.0016996242061302336 1.353876824388751e-06 1.0774014342985598e-09 1.8055721065059777e-08 0.00018732551390516895 0.9999289748453691 0.9999700611721054 0.9999830674267804 0.9999604028004587 0.9999454047348171 0.999937066123749 0.999932924602752 0.9999225525319424 0.6066415690410607 0.50554137393966 0.5214984728818238 0.5678049439617424 0.6840122332360624 0.7755315429908465 0.8472096795625241 0.0010395226715598604 0.00010225354333597324 9.90190207801797e-05 9.550037558041458e-05 0.00016152732117162468 0.8209503662918042 0.8298667511299536 0.00026031309074245535 0.00019444876440509505 0.0001999131532420002 0.00018922302229099829 0.00028057750692232785 0.7909643238788994 0.7082270286328304 0.40621218712315604 1.280356763795185e-05 0.9999999999999997 1.0000000000000002 0.9999999999999989 0.9999999999644437 0.9999922133924987 0.0017785473407556207 1.5930230993137921e-06 1.8094243340177638e-08 3.3795056094931135e-08 0.0001841636767553724 0.999901600288992 0.9999542057787725 0.9999699860287695 0.999965348551329 0.9999612098644398 0.9999566377687517 0.0025239248235592545 0.0001745464891351658 0.00010448600549607688 8.54326401077602e-05 0.0005637232365552078 0.5677761505160758 0.6288767556338609 0.7107246888574107 0.8055359282714435 0.8054656899441718 0.8053651078395815 0.8052293821313712 0.805035977555832 0.8046764904238335 0.8081866929478259 0.8198189852653188 0.00013097845911216118 3.4907985492199426e-08 2.649158120327351e-08 2.680155658864331e-08 3.564906707119189e-05 0.7682137270086135 0.6815779839724659 0.39160480000104103 1.2945721425711147e-05 0.9999999999999996 0.999999999998548 0.9999999999931986 0.999999999934712 0.9999914202963189 0.0029408688913231417 0.00018937765244308704 0.00018561724961312957 0.00018317931936332921 0.0003575549373878834 0.9998682592065016 0.9999225141455668 0.9999477237847663 0.9999550932786646 0.999957286177875 0.9999521897840473 0.001695394596314015 1.2556739630429918e-06 1.2440652403792642e-08 2.382569983388843e-08 8.47880818530314e-05 0.56772747181614 0.6126363482892629 0.6672398697907674 0.7236693741293603 0.7525734670403152 0.7585180793985363 0.7638537747802008 0.7724287493146789 0.7816607281653093 0.7934364408309962 0.8075908768079326 0.0001819501046701507 2.0557871619381374e-08 4.2223223705838215e-12 8.956567318390971e-10 3.174423748484059e-05 0.739148550072086 0.6457019629736066 0.36059776010845834 1.2868731802878493e-05 0.9999999999986573 0.9999994467591814 0.9999970717912574 0.9999956223748951 0.9999907511912465 0.9999717328422609 0.9999599378035915 0.9999481064323068 0.9999241784023924 0.999898666799124 0.999893748808329 0.9999071796485911 0.9999242201302283 0.9999387604691419 0.9999473228306371 0.9999464897173992 0.001630105630364106 1.1434066217161013e-06 4.746089488168108e-10 5.934172361191126e-09 8.132691830959335e-05 0.5676446911098425 0.6018560783096693 0.6388718961609546 0.6659298248060573 0.6810779541051271 0.6902727708305559 0.7020889594578869 0.7157764721125162 0.7486014368191253 0.7738382321989639 0.7956875378931713 0.00021909981905847867 3.42557614102246e-08 2.171522948998597e-09 2.322896345817557e-09 2.799747576068011e-05 0.704850623630127 0.6039426594639475 0.32291654926496216 1.2555242021902625e-05 0.999999783016171 0.8638081836159013 0.003631241179750595 0.0027691555653824237 0.002874254570992149 0.0027297647432218443 0.0028810404366176124 0.9999210399406188 0.9999201504200823 0.9999109820695742 0.9999037823833438 0.9999006541884372 0.9999055127525971 0.9999156166773749 0.9999349094566887 0.9999405065846023 0.0014911243451385312 1.0552093790597445e-06 1.2288152131406802e-08 1.6935783091725304e-08 7.710659721453148e-05 0.5675117689095553 0.5962542316754696 0.0035714443825095314 0.00325124912704546 0.0032518484348931466 0.0032290586003380375 0.0033046705486539578 0.7150846769647118 0.733088303918345 0.7596375033864138 0.7831074670488458 0.0004528402510535434 5.842201072199349e-05 5.2681850412017925e-05 4.281308721126641e-05 2.924127013623864e-05 0.6668477132940269 0.5455515588794174 0.2805363572022008 1.1990242727907725e-05 0.9999995603870819 0.8461150278759947 0.00016424210946756266 3.2421002676094115e-06 3.3680361144683543e-06 3.0129781043060355e-06 0.00018473810994538452 0.9999032740819808 0.00222330616688871 0.001383775902967603 0.0013387297867462626 0.0012754871829839867 0.0019317636544202077 0.9998953895631247 0.9999205267445083 0.9999332696700653 0.002011375965546543 0.0001565895882272757 0.00015355878129752148 0.00015168996025501295 0.00022155702065335426 0.5672844597220463 0.5925008406901561 0.00030582847127377653 8.050953721576713e-06 7.784769026418074e-06 7.563829946541158e-06 8.687428383850834e-05 0.7139080227687529 0.7287061492485836 0.7478809907196645 0.7724090430691695 0.7701830819274496 0.7650208548582917 0.7533754849546105 0.7158020927331644 0.12382988235824129 0.573158232382603 0.47989843373751995 0.23512477397060177 1.1172598966797262e-05 0.9999993411594501 0.8436685462096283 0.00037274070785140877 1.0178478103393471e-07 2.3164189559333833e-09 1.8225656855127932e-08 0.00018040481458213918 0.999889504923271 0.0003484166069580357 9.586919400552765e-07 8.247266626274665e-07 8.032056859972528e-07 0.0001627907904790264 0.9998823600008457 0.9999145900401587 0.9999292708861186 0.9999074032791313 0.9998961066156968 0.9998861578189329 0.9998762897116584 0.9998700801855962 0.8862283562699012 0.6414980878582726 0.00034390922716766965 1.1337492637827381e-07 1.2762631322770123e-08 1.630237706410644e-08 7.567158515584159e-05 0.7121865887631468 0.7244581093536108 0.7392727377904121 0.754762183345583 0.7600815298695986 0.7575004096634936 0.7480245675793586 0.7140411451117578 0.2048601556844238 0.4845067400958295 0.40274131600609314 0.19743068817636014 1.0165970185477256e-05 0.9999991213475271 0.8435134879293398 0.0005815102222407884 2.388040432431414e-07 1.3342409557036564e-08 2.7153880889159593e-08 0.00017846689545644568 0.9998800111470808 0.00040558762388151986 8.902816017134219e-08 3.346502358721249e-10 1.3025338201043827e-08 0.00015909960066749377 0.9998707512520396 0.9999098698199492 0.0013726053672412477 0.001228941887517255 0.0008619142875548365 0.000747254373082716 0.001308214196247638 0.9998429630817819 0.9436091519236668 0.7084371950865684 0.00040190303190750464 1.3316648994823387e-07 5.596568460007749e-09 8.753936875725389e-09 7.015186462606528e-05 0.7094279426822635 0.7194414098490091 0.7300404602984647 0.7412530735344559 0.7472954135081493 0.7480819744247054 0.7413550871427488 0.7118526290873439 0.33375643302085684 0.4131323816970381 0.35022799723553927 0.1666320533051004 9.064481305962979e-06 0.9999989067437607 0.8538454664223204 0.0016884574587139576 0.00015743363931355458 0.0001514575020011608 0.00013838246032357336 0.00027051552281506585 0.9998716064157972 0.00038665187890858454 1.0401908465181671e-07 7.793869493792332e-09 1.942176078897351e-08 0.00015628007188506457 0.9998620180103969 0.9999064927654332 0.0006927537915115201 7.694260396194578e-07 3.5711833680782137e-07 3.0043103796571073e-07 0.00014420977844439688 0.9998139895487747 0.9541892279905958 0.7714090099253337 0.0004770167390942322 9.721623080802715e-05 9.333113825366866e-05 8.898334595899618e-05 0.0001429241963080902 0.6989585949162629 0.7065930391644928 0.7159950453017707 0.7257535615606131 0.7333779251516626 0.7371328614621662 0.7336020731623093 0.7088658367482189 0.42414499795627325 0.37510215762144977 0.30742745177891845 0.14438440808979575 7.974978818313091e-06 0.9999986804831504 0.8665327954410442 0.8665064450679466 0.866464506445552 0.8663872038851588 0.8662003785913285 0.6313449091771924 0.6324326019124212 0.0006474488097473679 0.00010259403057062408 9.879451167662646e-05 9.44780585173384e-05 0.00023763342164739992 0.9998590436477082 0.9767797532619098 0.0007374409444657939 2.8543145133564655e-07 1.6783980210750586e-10 9.795174909460904e-09 0.00013877480984815429 0.9997771040706483 0.9660618036875954 0.8162523059611029 0.8161113164667858 0.8158675422198813 0.8155160947376282 0.8150238477614402 0.8143343750204693 0.8228469441230165 0.788690427503843 0.7636337555857255 0.7475477392702305 0.7385721804467057 0.7348010022395781 0.7290351718691482 0.705994487738098 0.4848043206870642 0.363865399568481 0.27519913268951324 0.12692259166775766 6.962925615703798e-06 0.9999984839842818 0.9024770635238334 0.8789626149673221 0.8744019034646716 0.8711631379896103 0.8684396738688158 0.6310774156799608 0.6324003090027205 0.6323724958055587 0.6323375869768839 0.6322955562571215 0.6322426723066122 0.6319661512106713 0.992646514226187 0.9768040094476476 0.000723276682354486 2.95840212163672e-07 8.551431727743082e-09 1.6597651637907867e-08 0.0001309101072138495 0.9997262057971088 0.9772823727630441 0.9053248440525309 0.8690268575216814 0.8598043455678236 0.8531518408870703 0.8481240343847201 0.8475302401906718 0.8462116737420767 0.8422130481253791 0.8278335541493553 0.8035474766321312 0.7827591731456641 0.7516299660408152 0.7326735030478143 0.7049321403842599 0.5238726847697813 0.36532978502229546 0.2520109523862158 0.11254497360031326 6.056054843355083e-06 0.9999982764620873 0.9194099009980565 0.8921834647994584 0.8810846905790094 0.875174642082511 0.870446891038673 0.6727654860600665 0.6399905813755228 0.6362855931965855 0.6359240172336393 0.6357593659734602 0.6351482821062326 0.6340646547037979 0.9131291847889034 0.9706936676007722 0.0012347636374654219 0.00012984038994469062 0.00012549706421888457 0.00012100562000719799 0.00022220303590317141 0.9927774853332689 0.9858119542977549 0.9576345401989956 0.9340419156467304 0.9147195855567931 0.894964558352642 0.8854386774384775 0.0004458550302221958 0.00025123577850082955 0.0003172674475059183 0.00034258769939859746 0.0005687302931190172 0.7813989305992403 0.7607035834647592 0.73563506042401 0.703862271787776 0.5473772549299017 0.3702207489517878 0.23502901927186526 0.10027672482936192 5.258045964744902e-06 0.9999980563805994 0.9303526160483396 0.9006750643045848 0.8865646319994647 0.87831476752474 0.872238558649897 0.6946356152982485 0.000549123143614327 0.00043943837656643483 0.0004501154395661377 0.0004156483998934052 0.0006668073987430447 0.6340063390693659 0.8181749749992874 0.9423734076824941 0.9423458584076227 0.9423155155660615 0.9422799593102577 0.9422401101949842 0.9422008654225645 0.6189430137939562 0.6582196064975065 0.7034971112560172 0.7388021404251729 0.7784078742396174 0.8060297690593682 0.8535753081400597 0.00040083216700346433 1.222108156235498e-07 6.242763725686559e-08 7.827674596048382e-08 5.589897153023479e-05 0.7790356018725493 0.7602533119089407 0.7358248617467154 0.7008698380124567 0.5600283001951473 0.3739253112640646 0.2216856218140514 0.08957817583634776 4.562176926726846e-06 0.9999978284304784 0.9371310478911717 0.9067948188004953 0.8906912611719439 0.8808750272722728 0.8736861587600281 0.7124454349472246 0.00023398820622373825 1.761438433496848e-07 1.4662714725159193e-07 1.4453562128233254e-07 8.25277200250933e-05 0.6339177159207606 0.7837705226805605 0.8710719549505506 0.9046722003309708 0.9099310721211685 0.9127421031920975 0.9165065188301135 0.9155606988171711 0.0006318774023353873 0.0002192582840224777 0.0003308125681846194 0.00038668756160476284 0.0006961561460383222 0.8056279320751019 0.838238513652333 0.0004073823366807006 9.272261220040826e-08 2.246011327294565e-11 2.0637926908435846e-09 5.301611389646587e-05 0.7756808687608286 0.7575737256593715 0.7327762878267663 0.6957165419779199 0.5648335199861222 0.37504786872391155 0.21037197736661448 0.08016549338108471 3.95852664014745e-06 0.9999975954625681 0.941899713830036 0.911415972493917 0.8940973026011 0.8831108020102594 0.8750278727408755 0.7263507733211649 0.00029398113831140943 5.8512456377489896e-08 3.960602964339762e-11 5.142551784555898e-09 7.935005484584528e-05 0.6337855440665592 0.7576396278034518 0.8396391012807114 0.8600911830098282 0.8689024799652953 0.8722847192551206 0.8798321817939776 0.8881836445011229 0.0005899077865726359 1.9945099620003913e-07 7.970852670338252e-08 1.0870514345316328e-07 7.645592160529189e-05 0.80502199397725 0.8360405526884837 0.00039612660714769655 9.901715802464265e-08 2.7596247788870668e-09 4.368619299721153e-09 4.998903292907215e-05 0.771140547628221 0.7531951241095894 0.7277563337146259 0.6885886996282086 0.5646179351088757 0.3738446633489766 0.20044530245998504 0.07193293614664557 3.437321227129281e-06 0.9999973597096329 0.9456569633899988 0.9153685606287536 0.8972743683291914 0.885414055437698 0.8765749041390816 0.7391538535674986 0.0003334152140744358 8.30846944522885e-08 5.5844847273934214e-09 9.434930337491841e-09 7.59205019193346e-05 0.6335955778679961 0.7514560602398238 0.0005389872453704443 0.0005313671512404281 0.0005990907300102389 0.0006252011101684449 0.001014166781200916 0.8881202767085496 0.0006753143262049593 1.8415299778824522e-07 4.504979453037391e-11 3.625383858882165e-09 7.366408980113733e-05 0.804225351264931 0.8320880765685666 0.0006303442027272516 6.720611388130602e-05 6.425191519717463e-05 6.112224797917706e-05 0.00010320172798300839 0.7649139598049848 0.7472538845250708 0.7213782884713926 0.6801979771702301 0.5614504745795762 0.37133546710755555 0.1918679552259744 0.0648775677407856 2.9900384082135406e-06 0.9999971225556102 0.9489717763072277 0.9191458280053141 0.9006138320057279 0.888193025404633 0.8787447000894041 0.7638085996308339 0.0007029913663622521 9.715243155184029e-05 9.150107631721142e-05 8.36139781881826e-05 0.00013968900817336373 0.6333415358648395 0.7432632879962584 0.00028010653337584 2.0155817396656735e-07 1.948211035470365e-07 2.3418492015099347e-07 9.940783745662856e-05 0.888054358759613 0.000457656897491598 1.3114823908701066e-07 4.157383336787977e-09 6.920097263729292e-09 7.029317483605746e-05 0.8029740040774757 0.827160192383035 0.8263700466047973 0.825047891266268 0.8233430174131923 0.8210379851399721 0.8163464525025196 0.7558412774476949 0.7404049445571117 0.7143167772828909 0.6712317533990949 0.5568109972463661 0.3685145554948652 0.1848487113101105 0.0590247317408599 2.609373903032732e-06 0.9999968847860098 0.9520756290451672 0.922953873998628 0.9043428011863069 0.8915783757657958 0.8822705164247635 0.7878128479472144 0.7876285148734445 0.7872381841823292 0.7864763835025785 0.7846772237481904 0.7692076842627759 0.6645267652172254 0.7405955531019951 0.0003756658806285286 9.602745629025379e-08 5.892654775774829e-11 5.541427830590748e-09 9.719210141786362e-05 0.8879815679561591 0.0007575158681693081 8.892151790971095e-05 8.362629683871739e-05 7.759220982795453e-05 0.00013455675226300707 0.8004498062918343 0.8136344450876036 0.8169765357127238 0.8157046825673681 0.8136224106481407 0.8121340574870507 0.8107600279818113 0.7713738349953614 0.7387862658798605 0.7079234202640652 0.6622321196205089 0.5514870569549454 0.36604315751015026 0.17959348599747246 0.05438818435699309 2.2889126593280098e-06 0.9999966465392571 0.9549355216614707 0.9267414594710737 0.9083379460746666 0.8957061998907743 0.8862952860417842 0.8318928800406997 0.8090751713190186 0.8032461507326607 0.7987006749467599 0.793779281611566 0.7770416307191619 0.6999159166372833 0.7368346129261953 0.0004500408882903508 1.4694131847086472e-07 3.0382034677787554e-09 7.943782429942367e-09 9.512102668336461e-05 0.8878957867367709 0.8877792377818344 0.8875292979008331 0.8870911677133944 0.8862458424063183 0.8832968749872573 0.8095826343356614 0.0002859067140837591 0.00027487692011907155 0.0003154088663200715 0.0003019298042054956 0.0005000195919289277 0.8087057456786949 0.7805765015197536 0.7395032517042481 0.7024681340227933 0.6533221277375664 0.5457907179488265 0.36425171635592885 0.17624711051245684 0.050970559132958074 2.0227673451416463e-06 0.9999964068848181 0.9573250325618098 0.9301232673094634 0.9123085930000339 0.9000350031953657 0.891152635512261 0.8572987268886484 0.8347583970518525 0.8211274173319902 0.8123631219438107 0.804657658411814 0.7906784728306331 0.739894581980037 0.7370706488731523 0.0008369781722925946 6.67481655676574e-05 6.432742731129191e-05 6.015700178577294e-05 0.00014387383337202846 0.8876653909274276 0.8875668451281367 0.8872900125567814 0.8867785786888132 0.8858838035332485 0.8834685304488942 0.8319558320201257 0.00027740169285604097 9.249424793582167e-08 6.22369878449805e-08 6.565565448625807e-08 5.099712884292893e-05 0.8052137380717792 0.7784063086162157 0.738257484852506 0.6965723730108893 0.6443257025575053 0.5398656413130344 0.3634039587946211 0.17496686322041952 0.04879417318881319 1.8056106430444752e-06 0.9999961578465478 0.9587424466301698 0.9325642097735819 0.9154556420906729 0.9041580905474998 0.8959914550954091 0.8751241025203603 0.8549651482281272 0.838784834494606 0.8256329859116557 0.814335170633783 0.8046756337582058 0.786558227487779 0.7562910985185762 0.7557808912263595 0.7551219937934711 0.753726636698725 0.7502806002764294 0.7406614088709165 0.8172685849877356 0.8421690947249991 0.8483364100993566 0.8476628301822126 0.8463667955205161 0.8534207049424833 0.8429306464916805 0.00035853980593135063 7.074996624254762e-08 1.7901058873332978e-11 1.6745106815922224e-09 4.80836352820478e-05 0.8002923368449294 0.7735704826020264 0.7335094236513118 0.6896868444224792 0.6351545143323787 0.5341278264316042 0.3639305349287452 0.17604366834007656 0.0479422442491301 1.6327465661589584e-06 0.9999958511866531 0.9586948874185951 0.9324995768465424 0.9174772496835403 0.9072138510406454 0.9006419811358435 0.8883188860446455 0.8731459508608166 0.8541973204969533 0.8373143673254985 0.0003876728057511838 0.00034502211274308164 0.00043263271750308783 0.000469853452166238 0.0008470039144933872 0.7542950927467318 0.7529242710013375 0.7491694794621054 0.739073181088164 0.7506239028177996 0.0002083883944369553 0.00021810595540202836 0.000281380186805068 0.00032890545734858776 0.0006154264034376572 0.8410911388710877 0.00039117053498264297 8.083644155429887e-08 1.3908803793742756e-09 2.6394062104349617e-09 4.4949401335198465e-05 0.7934761404567541 0.7666620799984227 0.7270869877864709 0.682134178823947 0.6263614908718359 0.5293353848334779 0.36655096022124084 0.1799647190239719 0.04859730249906307 1.5003751488250526e-06 0.9999952854053269 0.9575327756575145 0.9308619600390536 0.9142222833890321 0.9075744367696099 0.9039031319734316 0.8986369956366924 0.8892367356930856 0.8770130544201652 0.8475866153926275 0.00034087854224271235 1.3702734919001908e-07 1.0720465221961956e-07 1.4168486302936377e-07 6.244688563003368e-05 0.7521920238681844 0.7507362745038773 0.7466753608227829 0.735607442513765 0.729015808149648 0.0001680368940954234 5.014355983372778e-08 4.822202326681577e-08 7.171780680356214e-08 5.4028807192090314e-05 0.8389240059563657 0.0004932652099618182 4.748526304458852e-05 4.34594061451864e-05 3.874188598764922e-05 7.369344805493982e-05 0.7834685699853304 0.7575509650552869 0.7199395184896014 0.6750406285107249 0.618968921484795 0.5265424246982217 0.372146892431129 0.18740168925137046 0.05106952954620267 1.4057302400072298e-06 0.9999938334124419 0.9520122617967544 0.8029128794760906 0.0007070139369123265 0.00048736196274471176 0.0005141277782650779 0.0005148185319064563 0.0008060001468769114 0.8768155634478066 0.8545411799311587 0.00038801528840688325 8.741167907573745e-08 3.095346506557472e-11 2.521916848855145e-09 5.7851586553179764e-05 0.748010223501602 0.7463237701147564 0.7419483997754974 0.7300719083853563 0.7132460252415488 0.00019407679827496255 2.9951910435284653e-08 9.044855473094253e-12 1.884695828124932e-09 5.226173935886427e-05 0.8362990144373393 0.8332461642868182 0.8263794973182634 0.8150687729685935 0.7963473163956871 0.7565920286399846 0.763513986204794 0.7449761891112662 0.7123654753048707 0.6693966345346011 0.6141528391436003 0.526828645641825 0.3815819886555358 0.1991262749815902 0.05582076331715428 1.347113451977426e-06 0.9999898562029632 0.9466961293563864 0.7807871553228094 9.703513989598935e-05 1.2846756632770452e-07 1.342102662772128e-07 1.4954605834621197e-07 8.668617706168399e-05 0.8765296576251436 0.8549086096464793 0.0003903292904851231 9.652639803795256e-08 2.976972944985387e-09 4.693221308897559e-09 5.169192928175332e-05 0.73903556476963 0.7374765108684129 0.7336711862884806 0.7228298545809323 0.7005281304442714 0.00020200737372133047 3.594323292058732e-08 8.163549822589909e-10 2.3919693608833946e-09 4.8764649535156695e-05 0.8292161720430363 0.826286039734173 0.8187809691160693 0.806691641300816 0.7881399696495389 0.7535846292330036 0.7355183440874442 0.7246123510784248 0.70153176886246 0.6643508465904862 0.6122944682415243 0.5309135186683009 0.3955064275571078 0.21593177723542611 0.06349383266416707 1.323791659897281e-06 0.9999792173558542 0.9464473377708865 0.7796826572394729 0.0001626181678860283 1.8792036766911547e-08 2.386196458803806e-11 4.259922989846729e-09 8.367738758140762e-05 0.8761427896675776 0.8563918560715912 0.0006372124123865989 7.240348256072015e-05 6.819266173746581e-05 6.36739112849067e-05 9.975438895540007e-05 0.70370165697921 0.7070036785853726 0.7113939719807539 0.7090315841271864 0.6923526946925825 0.0003245160287519562 3.1018296235021925e-05 2.8845564778333986e-05 2.66775680456743e-05 5.747821021646926e-05 0.7271356218866786 0.7250054419024585 0.7287048081258113 0.7239882395920383 0.7180446329106953 0.7068779340079846 0.6978558581659414 0.6931563821795397 0.6818405319854098 0.6557003909737111 0.6114552123983227 0.5383748164445235 0.41408040528557954 0.23852954592572548 0.0749524546672756 1.3357126349916669e-06 0.9999506800263076 0.9478550873459216 0.7826328004126856 0.00020486773069070327 3.262663005795858e-08 2.752061434849523e-09 6.179740388715939e-09 8.016888204449595e-05 0.8755172308116235 0.8583403327839728 0.8578282130735555 0.8567722666856886 0.8550454561474912 0.8523420513248059 0.8480446238063741 0.8398133173054323 0.7731879249823821 0.7337009693248765 0.7115763572611163 0.6907556998853885 0.6835203525051275 0.6722747924834486 0.658208989389153 0.6417820052930219 0.6234612855371628 0.6017637031702787 0.5686801656612134 0.559047905623421 0.563454140151876 0.5752412494962421 0.5922571538592033 0.6109002057553216 0.6288617086281577 0.6389320839074879 0.6329073481918406 0.6049924965856858 0.5460221550043459 0.4362498775345483 0.26732925611774655 0.09131367334894577 1.3829860793845607e-06 0.9998693404328975 0.9516150643135177 0.8033780521096129 0.00044045383733733233 7.062435405643272e-05 6.439203760712383e-05 5.748996418448981e-05 0.0001249188252430088 0.8741709364398399 0.8643009401562839 0.8604171247358791 0.8585866365520618 0.8561619245450123 0.8526655239789737 0.8473711137765387 0.838636506751793 0.8141829957640027 0.7756997609880711 0.7392918788214402 0.7131644031762393 0.6938310463518785 0.6797017835073855 0.6633199388451738 0.6447001585343679 0.6237087528606464 0.5974333391403195 0.5664197817203184 0.5336770330721968 0.5085109892011135 0.4956272271158496 0.4977299865873577 0.5140858403133992 0.5402833577150313 0.5677662104267006 0.5852782198333047 0.5820971643837496 0.5463443796742653 0.4583243719009551 0.3017715417184386 0.11394206603166596 1.4649479982250433e-06 0.9996036783687681 0.9594888505414882 0.8291874388195368 0.8289733051070215 0.8282856813351862 0.8263092284207675 0.8211225077120958 0.8081464460250866 0.8223653053615516 0.8364634510208397 0.8393240521721533 0.8390868588098135 0.8354396659246165 0.8294107825553813 0.8212346616854486 0.8112764891995857 0.7979227604183535 0.7777381305192291 0.7528511591853558 0.7280775623538799 0.7066963386583827 0.6865055105223266 0.665846719595821 0.6430304631114429 0.6172409599649736 0.5880731803233615 0.5554826860652032 0.5210950196358918 0.4877561950214696 0.4599345988669207 0.4428238832160069 0.44087131895000065 0.45547463395792387 0.4828805782689686 0.5136890203079693 0.5345611871514113 0.5288535233663324 0.47264255611252715 0.33909207612022313 0.14402924947869494 1.5781882385062154e-06 0.9984485488461089 0.966619256120091 0.8894177540055607 0.8598040851620663 0.8530106968442047 0.8465847120553046 0.8366641092275601 0.818055638202771 0.7984358971778257 0.7903525583168507 0.7867673931659352 0.780605417801824 0.7709568681723142 0.757816282102991