# vtk DataFile Version 3.0
vtk output
ASCII
DATASET RECTILINEAR_GRID
DIMENSIONS 41 41 1
X_COORDINATES 41 double
0 1 2 3 4 5 6 7 8 9 10 11 12 13 14 15 16 17 18 19 20 21 22 23 24 25 26 27 28 29 30 31 32 33 34 35 36 37 38 39 40 
Y_COORDINATES 41 double
0 1 2 3 4 5 6 7 8 9 10 11 12 13 14 15 16 17 18 19 20 21 22 23 24 25 26 27 28 29 30 31 32 33 34 35 36 37 38 39 40 
Z_COORDINATES 1 double
0
POINT_DATA 1681
FIELD FieldData 1
Concentracao 1 1681 double
1.0 1.0000000000001192 0.9999999999998433 1.0000000000000986 0.9999999999999573 1.000000000000014 0.9999999999997823 0.999999999973711 0.9999999988922268 0.9999999757651316 0.9999996791260152 0.9999975053896369 0.9999884564118466 0.999960561011213 0.9998944509687224 0.9997447128875216 0.9994149897195739 0.9986702617225849 0.9966766703403147 0.9908647685294663 0.9718152192548828 0.919830767517321 0.8182756344341298 0.6728220241831553 0.5115501857368178 0.36382031718557145 0.2435512268607124 0.1538610147513118 0.09123179469963709 0.05004398541440296 0.02481620881739471 0.010674735446495696 0.003870260954458621 0.0011573639998299474 0.00028303148385526943 5.6146252347208675e-05 8.819154685418737e-06 1.0394113623839574e-06 8.202724769882311e-08 3.2447929227912797e-09 7.643978479227162e-15 0.9999999999999177 0.9999999999999462 0.9999999999997018 1.0000000000000884 0.9999999999999623 1.0000000000000118 0.9999999999996848 0.9999999999653525 0.9999999986475074 0.9999999715088439 0.9999996019822843 0.999996212925683 0.9998969434074212 0.8777859739158254 0.8621784460008585 0.8599461854566239 0.8594597448046833 0.8679613082487009 0.8780244156712014 0.9041976958177582 0.899437673515253 0.8549401650487961 0.7568314469989328 0.614231995486079 0.4600868765242533 0.3198650421698635 0.21189703950246228 0.13322043947188075 0.07908991172094341 0.04394919774599414 0.021653502867640218 0.009466528978584686 0.0033944410249438666 0.0009977059741235312 0.00024024136402511203 4.718504915360637e-05 7.3859667351942e-06 8.726788408764873e-07 6.938662262448089e-08 2.772674952572239e-09 6.507906379917505e-15 1.0000000000001052 1.0000000000001048 1.0000000000000493 1.0000000000001594 0.9999999999999665 1.0000000000000078 0.9999999999991196 0.9999999999300951 0.9999999979274307 0.9999999614479286 0.9999994658356287 0.999992610492816 0.9993454173833248 0.0004806497471832924 2.4370144535094022e-05 4.232681949712285e-05 6.394412006805603e-05 0.00018522332837694072 0.8756286457869954 0.8796600926783206 0.8634870789165815 0.8044605410782191 0.6898374545115804 0.5319108090449923 0.3647070710148971 0.23570241168077757 0.15263236848835873 0.09452564601363653 0.05582322893041637 0.03217085335624705 0.018448073177827415 0.007829184215708468 0.002688652323944566 0.0007484743181193487 0.00017366108879719603 3.349549819672597e-05 5.257097106943892e-06 6.348150640383492e-07 5.219014588326027e-08 2.17484822066564e-09 5.08126052505411e-15 0.9999999999999372 0.999999999999941 0.9999999999999512 0.9999999999999797 0.9999999999999675 0.9999999999974328 0.9999999999808562 0.9999999995937223 0.9999999943343142 0.9999999413050447 0.999999185965542 0.9999882577379999 0.998698810560924 0.00032641722576774734 4.9120084203758037e-08 1.2837182367481367e-09 2.9308928640045728e-09 1.4661807560223156e-05 0.8555220344509866 0.8477554573764939 0.8073244282886701 0.7204395924221692 0.5825928635283301 0.4101493339947863 0.22268023757608071 1.1104403177379948e-05 9.74035420234589e-07 9.440773401066831e-07 6.554654823523411e-07 6.986703706264519e-07 0.010356447487577056 0.004528031122363269 0.0014345359838954786 0.00038050176724697575 8.558826091413857e-05 1.658757652142636e-05 2.7167411173588867e-06 3.5104673687604894e-07 3.160494252626819e-08 1.4419420001752466e-09 3.385489421967896e-15 1.000000000000025 1.0000000000000226 1.0000000000000182 1.0000000000000104 0.9999999999939012 0.9999982251524305 0.999996609082865 0.9999950765373253 0.9999935947375439 0.9999928333513805 0.9999933802637938 0.9999799208535537 0.9981378457898258 0.0003111157318605514 4.408207385963204e-08 4.046511015999937e-12 7.844291343539357e-11 9.349874624232839e-06 0.7250544323279597 0.6998172775135841 0.6437771347414949 0.5503658639036465 0.4228977688423187 0.2725438301325083 0.11325459343369566 3.4446126618437796e-06 8.215123737832087e-11 8.554239496457328e-12 7.037729049056791e-12 1.280941371888481e-08 0.003821799871394563 0.0016764702154535886 0.0005132603059992972 0.00012958763520700707 2.8877552854444446e-05 5.855714844736151e-06 1.0574200796550304e-06 1.590796341846398e-07 1.6437300059186956e-08 8.73686824799729e-10 2.0683926362106723e-15 0.9999999999999715 0.9999999999999608 0.9999999999998839 0.9999999999948723 0.99999795305821 0.00036562805525344164 0.00023276711049863928 0.00026076939726517025 0.0002697746256321369 0.0004802683511659496 0.999969995832859 0.9999617959239625 0.9972278365692698 0.00026662658881572085 3.578601088345331e-08 1.7421409822383291e-10 1.6037646838562103e-10 2.427533005853624e-06 0.2704393638209452 0.2855575720328123 0.298965194878231 0.2891008934709497 0.24156986578548062 0.16019687714557831 0.06569934019095051 1.917403374978032e-06 4.1115562350976404e-11 7.770911480752232e-16 9.359267094037996e-15 3.16172493002031e-09 0.0010303787760037903 0.00043149620342452637 0.00012547952716869082 2.97314930128391e-05 6.555589774420818e-06 1.453616039563745e-06 3.194072283222682e-07 5.788075094202272e-08 7.82604720617401e-09 4.938472984043177e-10 1.1889688842274226e-15 0.9999999999859175 0.999999999978785 0.9999999999363429 0.9999999992536062 0.9999959012696871 0.00029861610238002116 6.525262551699847e-08 3.209381679643087e-08 3.726893395504019e-08 2.9949579441815202e-05 0.9999400633864491 0.9999174776817217 0.9964594632024587 0.0003362144787820669 1.936720763101054e-05 1.6944201122680043e-05 1.5241448585230377e-05 2.3852874753202573e-05 0.3625609564705056 0.28657019687601765 0.21144567698605538 0.17377042030653753 0.1421490595207435 0.09790507010975405 0.04145206640435248 1.1166269795993001e-06 2.437991633804714e-11 1.3210968930697847e-13 5.823911842991641e-14 6.315435192290425e-10 0.0002233549595038133 8.503502241987255e-05 1.9679317527636274e-05 3.779686219870374e-06 8.079117436333594e-07 1.9448034148823596e-07 6.172758707595503e-08 1.990302122303371e-08 3.416000659184202e-09 2.510355128002374e-10 6.306208142786259e-16 0.9999999989334226 0.9999999983781145 0.9999999953240588 0.9999999656747272 0.9999925980856673 0.0003104054587513698 4.5824669119419296e-08 7.061934653144595e-12 3.967831709175515e-10 2.750149093465088e-05 0.9998082274111141 0.99969394400658 0.9956541590944105 0.9936010699031826 0.9865031608395026 0.9726696974998345 0.9579802789223225 0.9385258244252557 0.5598220006730741 0.42762255118760734 0.3516639369970636 0.269625657076873 0.16058735043733416 0.08802230469843528 0.036653066379808745 1.5744680402913993e-06 7.201173511154696e-08 3.763874464868991e-08 1.7182808244668968e-08 6.167712057501191e-09 4.046780336662357e-05 1.6151975784493895e-05 1.8108688968303103e-10 2.972918564905523e-11 7.048716056368548e-12 1.7197414281403445e-12 7.3382925368092e-13 7.470529887114603e-09 1.4208854860223254e-09 9.891561159642348e-11 2.8262211641662533e-16 0.9999999767229742 0.9999999611228548 0.9999998755704822 0.9999994022513472 0.9999825928918896 0.000308108322200317 4.867752234489784e-08 3.569518263856485e-10 6.108999552226104e-10 2.4314195081795395e-05 0.9983520223677386 0.9980716621349877 0.9942381878844001 0.9898810370298352 0.9792711954992404 0.9126195469772078 0.00020050142558058652 1.3662352226441714e-05 7.651461137453924e-06 4.981687943371308e-06 2.1064295909956874e-05 0.2283495976410612 0.152616653640731 0.08318228204188921 0.03687922666617296 0.026867466958119417 0.016870631875885635 0.00949726296990392 0.004672511861336343 0.0017821666339730966 0.000283545436474186 1.5156390332580143e-05 9.09368851572357e-11 6.71399736949221e-16 5.5002587041283444e-17 1.4244069186145897e-17 3.934192506793643e-15 2.2665761934955884e-09 4.3670916264635495e-10 3.230763303686058e-11 1.098164347523741e-16 0.9999997975129639 0.9999992568786904 0.9999978063166797 0.9999921760155787 0.999957381258643 0.00048192672231090963 2.7139228707580186e-05 2.57809469588089e-05 2.3319655638473425e-05 3.807608614700691e-05 0.9780191868664033 0.9783129272661564 0.9755795562664094 0.9672154665862619 0.9449472919638008 0.830911794579432 0.00010187265159601513 7.123493049345915e-09 8.623544726618386e-11 9.685847471903463e-11 1.0561842308181778e-06 0.16147970751269566 0.10976545227192581 0.06432276942904384 0.03620994772148031 0.02243171757325353 0.013766826635451184 0.007776755090155129 0.003819433236205064 0.0015447016190838821 0.0003730936171299981 3.742074060852422e-05 3.222039443879713e-10 2.2182675337593227e-15 1.3464880975002174e-20 2.121099916756865e-21 1.0660588879698282e-15 6.386962026825409e-10 1.2089172515218421e-10 8.849699883184215e-12 3.755849544440231e-17 0.9999990837674654 0.9999096231552357 0.999490235482934 0.999048374504144 0.9995761172809001 0.999436795123296 0.999188064749276 0.9987881521058181 0.9968024544513236 0.97400272732504 0.8888578218322741 0.8748478722908944 0.8770509934590013 0.881886354128368 0.8622702739350452 0.74041566659207 7.693050336385995e-05 4.664136913039662e-09 1.9640687605619242e-13 2.3660406854796157e-12 5.160168619574191e-07 0.0921391104796941 0.06049822596807365 0.034615103452074344 0.019808517616409848 0.01168429815124704 0.006897376248669576 0.004187123918275166 0.002570727782157211 0.0011433330725492826 0.00032716973689595114 4.2614859733773785e-05 4.2096423053234846e-10 3.537679640087988e-15 6.891105365606123e-18 8.879983816400345e-19 2.809697410324713e-16 1.745675426413122e-10 3.200218195815289e-11 2.2427061796467356e-12 1.1719618301700383e-17 0.9999967755373764 0.8632862024962292 0.0005990492670063934 0.0004279330584077772 0.0004460654635954988 0.00041032643311197855 0.0004152598012246069 0.9981230636039958 0.993757851526567 0.9482633255866052 0.8505697398587031 0.7612575611829097 0.7306906125143696 0.729789127986262 0.7561114188823216 0.6527550750482242 5.60374395077787e-05 3.179309229959456e-09 9.381747073874568e-12 7.393677771889684e-12 2.0425110524446089e-07 0.04223994069643512 0.025256267406281015 6.568265281005577e-06 3.1862654779302687e-06 1.7550914702788442e-06 9.747208393122863e-07 5.666332075020071e-07 0.001598457882939226 0.0007544428441693504 0.0002313384555365488 4.402176195575026e-05 7.717149833110321e-10 1.405059827359398e-11 3.2235241293858246e-12 4.338779946483158e-13 2.9399172246533816e-15 4.7631507891841604e-11 8.305082129403566e-12 5.487474036711824e-13 3.39612201212366e-18 0.9999916811260953 0.8455481690346907 2.653546535811905e-05 8.130498678160413e-08 8.4443064754189e-08 7.096846121660862e-08 2.2565945334939338e-05 0.9963596068066164 0.0002640627265023346 0.00012735317718250033 9.126667301888371e-05 6.8590238888191e-05 9.564455825548822e-05 0.6829892705581919 0.6726432657345615 0.5810252265932826 6.065356556949019e-05 2.513096247698822e-06 1.919128885084455e-06 1.4410701128703614e-06 1.0941695854937954e-06 0.015581543652988972 0.00915733849031051 1.4699599809267707e-07 4.3587529404406415e-10 2.2522459143127307e-10 1.185625232366065e-10 2.1850106976462066e-09 0.0007563073617925466 0.00037667223360351505 0.0001344682130450078 3.477596653433729e-05 1.7332887710013e-05 5.9719014906157045e-06 1.4353832043095619e-06 2.023397236351168e-07 1.4002278854093756e-09 1.2516820945052779e-11 1.94858115809643e-12 1.2887806755361186e-13 9.203519110409383e-19 0.9999802914593243 0.8430214292971623 5.87391412269943e-05 2.5746326582056476e-09 9.685321281957168e-12 2.420383536030476e-10 2.0548891549058345e-05 0.9928604651721333 3.958487980009011e-05 1.0350455976412844e-08 5.758915128533185e-09 4.058490739421287e-09 5.688400013000172e-06 0.6072935607411648 0.5845859860167274 0.5078401634479002 0.4468726991898051 0.3783533118855831 0.3137276842497245 0.254623188406924 0.19688137950869103 0.08564285367729055 0.009829313639302367 1.7404133212580825e-07 2.866842188103048e-12 2.6190373892232695e-14 1.5041361498113397e-14 7.418581057159253e-10 0.0002837338544251341 0.00014826803313488772 6.150791578331971e-05 2.2231437733482238e-05 9.258602649057104e-06 3.158683792046849e-06 7.731671312483521e-07 1.1709217499465633e-07 3.5135227370267778e-09 2.013823843224771e-12 4.3234670078829195e-13 2.8850707488559043e-14 2.3436378728876474e-19 0.9999545055951903 0.8427412145306248 8.80160271414409e-05 5.576008423301089e-09 1.338049070807396e-10 2.4409434375754205e-10 1.8599419189336928e-05 0.9865187441711806 4.2270250571826546e-05 1.1006959809168226e-09 2.8306332775663983e-13 2.638167899131478e-11 4.28335404197369e-06 0.5146840769006185 0.4854568719123101 3.411446998980962e-05 2.521251539778158e-05 1.3918752914407449e-05 9.338501560280793e-06 1.1738020076789293e-05 0.1485005004073025 0.07781493893066702 0.013114181508166744 2.3581610591791958e-07 3.980521800135547e-12 8.041996551796435e-15 2.9910933498141227e-15 1.9162368246132907e-10 7.871288740196452e-05 4.4295003290009915e-05 2.1236213837192004e-05 8.958669221766793e-06 3.682885046732783e-06 1.2878872687230823e-06 3.385508868657819e-07 5.8401963396593916e-08 4.552706324752845e-09 1.1959809875572682e-10 1.3535287555990253e-12 8.470676755295144e-15 6.060660580609817e-20 0.9998924819941146 0.8529429196788841 0.00024308616645421692 1.838198918093034e-05 1.3391682054114977e-05 5.7836140321739705e-06 1.9381184823959176e-05 0.9756749933793067 3.650999721010036e-05 1.0344789931528435e-09 1.1627572500517555e-11 2.2355690049682055e-11 3.0974138383380506e-06 0.4179860669020326 0.38637820059857414 1.1965049701640193e-05 1.0292362231455013e-09 3.7821655613238247e-10 2.2770198698846615e-10 3.8206866599788306e-07 0.08940366033342399 0.048784976348134286 0.012743718583427975 1.9935427067561373e-07 8.115726114127505e-09 3.0695645699841415e-09 1.0216328288045171e-09 3.34811888476226e-10 1.1305914619505955e-05 7.787983995696456e-06 5.0233795329941455e-06 2.6219230868145716e-06 1.2211054627479834e-06 4.69048151236813e-07 1.360797070787473e-07 2.6781282443234316e-08 2.9237102679253233e-09 1.577411622875627e-10 4.0649798489343925e-12 4.420230933532193e-14 7.540912154041594e-20 0.9997045613636812 0.8654482992553808 0.8650371471622501 0.8607160153887762 0.808681862682801 0.5031439480184678 0.26531045399156383 0.611606266855867 5.3239368520532236e-05 3.6014951144697234e-06 2.032840988714542e-06 9.76105342803294e-07 2.4092595640916666e-06 0.32703398381617643 0.2908087132596703 8.962672864668854e-06 2.2248412497473567e-10 1.2608987357311755e-14 5.712794353980259e-13 1.667023214703126e-07 0.04355280975175177 0.024893922689287667 0.009410640383569363 0.005647830205945673 0.0026913393747529713 0.0010852232435650195 0.00038362407141116734 0.00012278271921537675 3.510526410813611e-05 7.386444324434555e-06 2.2856591824884885e-06 9.375697899937785e-07 4.30131254700074e-07 1.7773307280605295e-07 5.5711504775737863e-08 1.1880723214204819e-08 1.5420417991703843e-09 1.1167093909863952e-10 4.232839057271327e-12 6.83196473499636e-14 1.0834590437762913e-19 0.9990265485814669 0.9007175021593636 0.8763412474982549 0.8654127067150988 0.7993166875351959 0.4929081668769079 0.18708280419944423 0.5583279527357994 0.5065363471533646 0.3961492964167945 0.2702515286242037 0.1543761843206559 0.04538989484884639 0.23775420008687007 0.21027095987344852 5.828063056265654e-06 1.4031281965794614e-10 2.566991610248385e-13 2.6115475592417654e-13 5.150752788205546e-08 0.015063996378345235 0.009656156980004904 0.004986997779296737 0.0028679626050206685 0.0013610551237637416 0.0005496756782550451 0.0001847250894021107 5.617151176575993e-05 1.5608651346535688e-05 4.330351583622155e-06 1.308368656169874e-06 4.856461491443137e-07 2.25497815340225e-07 8.739288448463336e-08 2.5541164562197343e-08 5.376370511644964e-09 7.454294163500136e-10 6.219494211932755e-11 2.858600258839441e-12 5.725634998241089e-14 9.696379663112837e-20 0.9958900853652745 0.914062149374866 0.8837622662376332 0.8587868507973371 0.7695918656362918 0.4631184436301019 0.1589080083845371 0.3881767582302226 0.3511462609362853 0.24932650247538915 0.15541653012576953 0.09391209722158489 0.049670428824320774 0.13122267698186144 0.1447685803438386 6.006962094831008e-06 1.6338074284529718e-07 7.68906595121166e-08 3.223641364668198e-08 1.8236315612894614e-08 0.0019012486109179444 0.0015916187927763248 0.0011971019819051957 0.000748472010675799 0.00041383592857964063 0.00019247820228389032 6.302376939638477e-05 7.304012502260042e-10 1.1079182658571513e-10 3.989965128797034e-11 1.3614948351684244e-11 8.159200817342063e-12 1.1300655133854476e-07 4.204413111175208e-08 1.1394583102318058e-08 2.3365417756459123e-09 3.299270232538443e-10 2.956969739803521e-11 1.5118039625390527e-12 3.425400369875741e-14 6.339134482601506e-20 0.9830550333692393 0.910830713202307 0.8729506806600731 0.8297039175387839 0.7100241135519955 0.4116008599292786 0.12570975986389624 1.863189008734458e-05 1.3679829462614429e-05 8.602326475107589e-06 4.379313571444767e-06 3.518812142355283e-06 0.034291409380004766 0.06822551807605146 0.09642940603499835 0.06860059146573103 0.040170952537108354 0.020570966025042846 0.009337497085218806 0.003884149023774381 0.0013791950336275985 0.0004429580677103312 0.00021310919324116676 0.00012221262758459138 8.746524513906358e-05 5.703492516046532e-05 2.494336115314478e-05 2.573663516796241e-10 2.9472399536685556e-15 3.402062793624287e-16 1.3360805181575787e-16 7.142994994337185e-14 4.475932201102938e-08 1.6995560386458055e-08 4.571458575834025e-09 9.235901392975671e-10 1.325141384183228e-10 1.240534472204867e-11 6.78057365246122e-13 1.660104134098531e-14 3.3828103719246864e-20 0.9457573580990777 0.8784499860764002 0.8312119979385308 0.7662606293099216 0.6209379651700314 0.34147877143687805 0.09694495050775122 1.4831449483025325e-06 3.654870965211279e-10 2.0475055020876044e-10 9.90780517882828e-11 8.202049108460931e-08 0.019749370590104582 0.03754339563317993 0.04649292698826336 0.03689652726983492 0.021198034947746927 0.01071063394338996 0.004997636274078339 0.0018216535491367783 3.232871902946566e-08 3.779205696244897e-09 2.570948754055557e-09 1.6278423092336523e-09 1.7986897962826595e-09 3.089350840002699e-05 1.2158196017744973e-05 1.284583016279182e-10 1.2103583571787276e-15 1.2844999621663253e-20 4.397398436094058e-20 2.4186465613322666e-14 1.5746863572955953e-08 6.019515268815551e-09 1.6418989476172444e-09 3.350495340883418e-10 4.896885706131073e-11 4.747720595577568e-12 2.7215923656618563e-13 7.032283096309492e-15 1.5780586206999906e-20 0.8673268812523681 0.8040978789195429 0.7481252676927588 0.6657361949668864 0.5113161130614038 0.2686449879833915 0.07248068237223633 1.2716194517878181e-06 1.7413492619605674e-11 4.131431505379035e-15 1.2795607205786146e-13 3.687785754342417e-08 0.009747706878470454 0.017308365291101274 0.019275502505332224 0.012174160778977195 0.006705352802726216 0.003307603487298254 0.0017869874279306723 0.0009373909061291793 1.5223303254962754e-08 2.134597317368521e-13 2.8227739442270332e-14 1.996302305094308e-14 2.8084800521188196e-11 1.4075886808692076e-05 5.413372466504917e-06 5.274436324482891e-11 5.249755935893737e-16 2.1127554175523192e-19 7.776370231651555e-20 7.565605950933079e-15 5.110443306996006e-09 1.9695161016071532e-09 5.485136881693215e-10 1.1435537199777885e-10 1.7121733498424334e-11 1.7126022123604984e-12 1.0199195637331517e-13 2.7455465257571783e-15 6.736849849122871e-21 0.7420186765831616 0.685166932768909 0.6257739472516688 0.5380868142978213 0.3960311577583382 0.2043413331028694 0.05395806334180784 9.87639916946523e-07 1.5115918351116267e-11 6.337229957975927e-14 6.15486480105303e-14 1.463884505985733e-08 0.004229874742309248 0.0074948738276416635 3.385811234090146e-07 2.1688794654102379e-07 1.2714635693855034e-07 6.27146391829408e-08 4.900501765953205e-08 0.0005729042751782428 9.810373113072544e-09 1.1541240668401535e-13 1.4532136284256283e-18 2.281160226598229e-17 1.1110828154840812e-11 5.836526763909409e-06 2.394165143958931e-06 3.397037340188957e-11 3.3389354003024525e-13 1.1650722505049905e-13 3.728704167801091e-14 1.0985853603694118e-14 1.5307750863012038e-09 6.04121217443319e-10 1.757337040111797e-10 3.780404758794763e-11 5.8167518749451045e-12 5.992102693357402e-13 3.687537982965335e-14 1.02697142119502e-15 2.7180937465659487e-21 0.5824033073975442 0.5353240618016429 0.4801918194120537 0.40105514309974494 0.2875037808588086 0.15205421365274005 0.04766787857107451 1.5699842408064897e-06 5.6014703056010024e-08 1.924617206936147e-08 4.820397013237916e-09 6.014056784756292e-09 0.0016945615794368661 0.0030270718399442683 3.197879214992743e-08 3.324224820105192e-12 1.993472383850405e-12 1.0740257325227008e-12 8.090773270938253e-10 0.0003302649282968448 3.7329250167891835e-09 4.3907731314084797e-14 2.0473032096880768e-17 1.1751549271335075e-17 3.660818854275874e-12 2.0177655580228794e-06 1.079967241754683e-06 4.5752286920457165e-07 1.7624232318106778e-07 6.32277204824003e-08 2.0769417432754942e-08 5.036332143746195e-09 4.0399217913969076e-10 1.7955757233140355e-10 5.559802307626492e-11 1.2401236137980046e-11 1.9617808749137978e-12 2.0783042365561855e-13 1.3181041847448482e-14 3.7858070082844733e-16 1.0610806199357146e-21 0.414711831981205 0.37940557517855517 0.33453695321924026 0.27254553594769726 0.19334482101140057 0.10794248725403269 0.04187111671119993 0.028051257836716987 0.013916883422789248 0.005242421031559434 0.0014341678981009006 0.00019910161203549973 0.0007053440974978581 0.0011218306300322198 1.553323682444832e-08 1.9890402431212724e-13 3.0281844109623996e-17 1.0555626157259225e-15 4.3966808731886823e-10 0.00018758204265447958 3.1163902817322207e-09 3.5720465711730844e-11 9.717078938507932e-12 2.277624299555667e-12 1.2921469970288959e-12 5.189618700980261e-07 2.863985549033201e-07 1.3455841434487103e-07 4.713340410880018e-08 1.6523739815409785e-08 6.332948934156357e-09 2.4430472810875233e-09 4.1238876634467653e-10 7.70043875917046e-11 1.9113900811600874e-11 4.1615529803653486e-12 6.681957630009343e-13 7.25794474050644e-14 4.740712429640456e-15 1.4042173617666737e-16 4.0809117982240704e-22 0.26623342283454254 0.24225397928118717 0.20959305657613783 0.1666616648509657 0.11692410630092212 0.06891626037506533 0.03427730957105282 0.01922166356889575 0.009253298752733334 0.0034117180971170082 0.0009516503374418844 0.00016788310296533775 0.0001692630065311577 0.00040798593914348843 6.710760246422418e-09 1.0705491936600103e-13 6.453501078871622e-17 5.334625026631051e-16 2.248092176418051e-10 0.0001002036586516914 4.618174646330903e-05 1.578577030076922e-05 4.478209230814629e-06 1.0916385711987087e-06 1.976759831660558e-07 7.83757046938229e-08 1.651210776799888e-12 1.0799272985968653e-12 4.359731671264516e-13 1.490303566678755e-13 8.754227839153944e-14 1.1090605004907866e-09 2.36697199290334e-10 3.764323555561135e-11 7.325810363207435e-12 1.4586184098830584e-12 2.3270790433906256e-13 2.5811209110128238e-14 1.7385277145351143e-15 5.32697804310914e-17 1.5696642563450888e-22 0.15399175050973532 0.139025354620928 0.117266650497036 0.09013141366053161 0.0618938859725059 0.03723315029163341 0.019653302061742487 0.010259669362475089 0.0046951096168482 0.0017189843344229084 0.0005085357091706938 0.00012527768684130597 5.9113047067556485e-05 0.0001409820107137074 4.109540357858032e-09 5.845847884744694e-11 2.6975272889281586e-11 8.080773005317215e-12 7.42697373300043e-11 3.428427281205298e-05 1.6588408780726e-05 5.334855831095127e-06 1.4903381641523803e-06 3.8692414602517533e-07 8.79618840514068e-08 1.966630375952619e-08 1.6286376990344829e-13 9.058174350497954e-18 3.603806209621572e-18 1.3348477777824516e-18 5.04645014672591e-16 3.979214852636743e-10 9.154074549191133e-11 1.565822059769853e-11 2.8162177189297506e-12 5.260391578939546e-13 8.313022053390753e-14 9.426291068355739e-15 6.578379902079671e-16 2.0987066225060367e-17 6.124897807854836e-23 0.08087929602837574 0.07211327273557132 0.05838989263060528 0.04241490932512673 0.027668239440618147 0.016357702445286962 0.008797695200659343 0.00453197295602664 0.00205842438881624 0.0007290279470550068 0.00019189268147168487 5.413790308736871e-05 2.121297268738676e-05 5.647641462743584e-05 3.531374849663508e-05 2.2660387624318707e-05 1.0853814384572607e-05 3.3944633717472348e-06 6.83773418513422e-07 3.7938845702534563e-06 2.29492377730473e-06 7.739089587747085e-07 2.1777332532261e-07 6.37193009184165e-08 2.3965346007255655e-08 9.374132577490832e-09 1.0245770243525417e-13 9.342185526139713e-19 3.7157340867055425e-23 2.517895718566141e-22 1.560174938116547e-16 1.2717278471512485e-10 3.072109158948164e-11 5.687165000352976e-12 1.0423669136244288e-12 1.9183156003304592e-13 3.0507267755634514e-14 3.566740946500694e-15 2.602643714407044e-16 8.736244787135728e-18 2.462515100008546e-23 0.039266370093870163 0.03439041752322579 0.02612844074538788 0.016918593622022915 0.00991823111971924 0.005475558756110619 0.0030073273934824664 0.001653786452748478 0.0008211091336007231 0.00030104379457941287 2.9613793202408856e-09 6.736567640427833e-10 3.43121840955007e-10 1.066934303137021e-09 1.1114140214750166e-09 1.3635932058453222e-05 6.299477592379918e-06 1.8900911435351112e-06 3.765252514529346e-07 2.9563941124797604e-07 7.642971275771768e-12 5.0949798232591896e-12 1.8769289906783813e-12 6.565946647277833e-13 4.2638690422439967e-13 4.989252338018381e-09 5.145367054303235e-14 4.777933008680038e-19 9.369033664027891e-23 8.547895909126792e-23 4.404277591711571e-17 3.7054047440603215e-11 9.447036133725655e-12 1.920775015719174e-12 3.74471578226649e-13 7.079110417518924e-14 1.1584860570989877e-14 1.4163709966701254e-15 1.0949946374639988e-16 3.9240622129352095e-18 1.0396740604629689e-23 0.01802533663462461 0.015613840804264862 0.01071354883686753 0.005620527679658721 0.0021325087044732926 0.0010802998883363982 0.0005969813810340899 0.0004342592889981452 0.0002976522175564402 0.00013845652526453368 1.4137944971178446e-09 1.9572155956010067e-14 4.292393962779097e-15 1.6487313261905038e-14 1.1751160569337692e-11 5.434361456737096e-06 2.537452677338399e-06 7.529211760216758e-07 1.5019736835538984e-07 5.276203462964822e-08 3.6948016154381274e-13 3.209860693258882e-17 1.4394956792963775e-17 6.334509522125257e-18 3.6089140473544324e-15 2.533462136554424e-09 3.036752815049275e-14 2.2894242178145464e-16 5.719572642024989e-17 1.2053284823500905e-17 1.2930585869733428e-17 9.614437206646246e-12 2.6627318828348037e-12 6.173464632879237e-13 1.328567147516062e-13 2.6717114514122772e-14 4.6107031925414866e-15 6.000423140776943e-16 4.998537356782029e-17 1.949081826461381e-18 4.72136180885216e-24 0.00798769371845143 0.0067656517493571156 0.004704346832455525 1.3722499643338822e-07 3.599476122037335e-08 1.8825798798549388e-08 1.0210263440427026e-08 1.053705794528841e-08 0.0001705602448039945 7.334587107632003e-05 8.363401945676748e-10 8.82341964195056e-15 1.3608295662183426e-19 7.269704426178538e-18 3.275035110017641e-12 1.597736660059944e-06 7.484419848741951e-07 2.3319590863671965e-07 4.95518971977991e-08 1.2662540718384398e-08 1.0786301291386371e-13 9.24759234984801e-19 1.0754769628399687e-22 2.8451124053263124e-21 1.6828633442260116e-15 1.2147217090238895e-09 4.483249065630049e-10 1.3874772661560586e-10 3.542028698852184e-11 7.616734068101866e-12 1.1985227342515513e-12 1.906782577423739e-12 6.739854294777563e-13 1.8979381447680396e-13 4.6912553458206373e-14 1.0392520805852005e-14 1.944276151732469e-15 2.7534996569947383e-16 2.5244861669607107e-17 1.0968695346215848e-18 2.373148646700633e-24 0.0034209593871757484 0.0028994562850863277 0.002011878705879624 7.225079788993353e-09 5.183632215328209e-13 2.6273807945351113e-13 1.5077063907731384e-13 2.0900276778489486e-10 8.535638144814243e-05 3.591171498560265e-05 3.9513710793156497e-10 4.374342955166781e-15 2.0623658241942502e-18 1.9633870417821127e-18 6.797083104696884e-13 3.4974848491201623e-07 1.7200316399370005e-07 6.095456282127786e-08 1.5460843521748686e-08 3.6823199445606648e-09 3.382290741708679e-14 3.307714981946275e-19 9.23952788491536e-23 8.078200360016452e-22 4.782464051347806e-16 3.5723388103110497e-10 1.4366562609572545e-10 4.04867644890649e-11 1.0575315230702313e-11 2.4526013693965245e-12 4.692687972919079e-13 2.8839598776883453e-13 1.5342164399995494e-13 5.52540055918794e-14 1.6338000911314575e-14 4.139681281263828e-15 8.676428231844064e-16 1.3753910474461356e-16 1.4257159648681418e-17 7.106249307537933e-19 1.3580274316867754e-24 0.0014105882638810632 0.001200549170325655 0.0008340588537015095 4.916244512458642e-09 2.969314407180515e-14 3.2746650498831176e-18 2.2009590444260125e-16 9.197329573145474e-11 3.944100208291035e-05 1.7527715302579738e-05 2.840746173191107e-10 3.2471628052679374e-12 9.959180076682084e-13 2.7755362017007214e-13 1.5336138657933577e-13 4.462552816617206e-08 2.6801592389339346e-08 1.3162860211871402e-08 4.5897093141101e-09 1.369424593816936e-09 1.9154152107613918e-14 1.546613483585677e-16 5.3611002220945375e-17 1.7820653043395913e-17 3.913827105087164e-17 2.595095746300642e-11 1.2036139615135113e-11 5.095352517968373e-12 1.5850470074722515e-12 4.687922967942855e-13 1.246247540981754e-13 5.859437437705991e-14 3.420033449420764e-14 1.5436466720687385e-14 5.55591317978684e-15 1.6605253457230007e-15 4.032365364954638e-16 7.391300447238248e-17 8.94317227752891e-18 5.287984817188389e-19 8.98805306980531e-25 0.0005517012741750093 0.0004751320730641904 0.0003350924523896841 2.4372718042409847e-09 1.8198043226413685e-14 1.0202642187613442e-17 8.145756457080432e-17 3.465903553015309e-11 1.5626806122751917e-05 8.683130248404867e-06 3.993226699461322e-06 1.4792539891259466e-06 4.6998752315314393e-07 1.353802500609822e-07 3.586024062933307e-08 8.126960926431317e-09 3.662565500660099e-09 2.3392228635714566e-09 1.1085305247968197e-09 5.57511590272073e-10 2.2907486307247626e-10 8.830699266227878e-11 3.12526408229941e-11 1.0587638587262491e-11 3.525437557782735e-12 1.0577387041987708e-12 4.073701526444448e-13 2.84428678886324e-13 1.4890736889525642e-13 6.333629556658539e-14 2.3