# vtk DataFile Version 3.0
vtk output
ASCII
DATASET RECTILINEAR_GRID
DIMENSIONS 41 41 1
X_COORDINATES 41 double
0 1 2 3 4 5 6 7 8 9 10 11 12 13 14 15 16 17 18 19 20 21 22 23 24 25 26 27 28 29 30 31 32 33 34 35 36 37 38 39 40 
Y_COORDINATES 41 double
0 1 2 3 4 5 6 7 8 9 10 11 12 13 14 15 16 17 18 19 20 21 22 23 24 25 26 27 28 29 30 31 32 33 34 35 36 37 38 39 40 
Z_COORDINATES 1 double
0
POINT_DATA 1681
FIELD FieldData 1
Concentracao 1 1681 double
1.0 1.0 1.0 1.0 0.9999999999999999 0.9999999999999998 0.9999999999999998 0.9999999999999998 0.9999999999999996 0.9999999999999998 0.9999999999999996 0.9999999999999996 0.9999999999986962 0.9999997805683402 0.9999995525016669 0.9999993272564034 0.999999101384684 0.9999988808578802 0.9999986482770702 0.9999984464974668 0.9999982335614159 0.999998007759569 0.9999977730809656 0.9999975305301919 0.9999972813204058 0.9999970219494851 0.9999967502450571 0.9999964806522903 0.9999962134286967 0.9999959491961785 0.9999956975363951 0.9999954458937581 0.9999951967342934 0.9999949424268619 0.9999946816113531 0.9999943449288206 0.9999898554239595 0.9998256072358268 0.9952207547620279 0.9057677340698771 0.00010997957555628228 1.0 1.0 1.0 0.9999999999999997 0.9999999999999998 0.9999999999999996 0.9999999999999996 0.9999999999999993 0.9999999999999991 0.9999999999999993 0.9999999999999989 0.9999999999989495 0.9999995421105677 0.8785424912505949 0.8630409904828064 0.8610274353126589 0.8609544369309076 0.8701691481525314 0.8815126146727339 0.9136745862877377 0.9289724121822286 0.9387723998561284 0.9440854263178469 0.9460655096494226 0.9455428785718086 0.9421973446695705 0.9382234389841144 0.9380251463936037 0.9393751485447496 0.9429522011135055 0.9504739546185437 0.9576138659659063 0.9650390341100183 0.9706663883133528 0.9752616260989205 0.979285383039372 0.9831596616640758 0.9869759098811189 0.9866206905254994 0.9025604409354708 0.00010985245067520011 1.0 0.9999999999999999 0.9999999999999999 1.0 0.9999999999999998 0.9999999999999994 0.9999999999999993 0.9999999999999989 0.9999999999999987 0.9999999999999983 0.9999999999999978 0.9999999999935302 0.999997054979433 0.005447294277324777 0.00029209958111047147 0.0005256697960992509 0.0008411705372919682 0.002624162858052213 0.8814861774918925 0.8927350029462636 0.9048799383849626 0.9127869362467205 0.9180543200691632 0.9197939638190153 0.9191021866436541 0.8075379515786885 0.7891870069206862 0.788081298712084 0.7902011098281658 0.8062466377989633 0.8260404039511545 0.8731809610540151 0.9005947886582 0.9205871731393128 0.9351624578204935 0.9472138595009312 0.9582589490603632 0.9688860504408922 0.9752762710032419 0.8997568456951578 0.00010976250736291757 1.0000000000000002 0.9999999999999997 0.9999999999999998 1.0 0.9999999999999998 0.9999999999974992 0.9999999999925706 0.9999999999852981 0.9999999999765051 0.999999999968797 0.9999999999662504 0.9999999999575768 0.9999957437730451 0.003937830815205879 6.767793976472928e-06 1.935581378774439e-07 4.973098228105419e-07 0.0002833916376148923 0.8814433100402822 0.888629151683602 0.8949681046651866 0.9005267962634009 0.9046698349474493 0.9074431910565611 0.9056490475513849 0.001978705407357946 0.0002517236969974854 0.0004303509934778372 0.0005507847654515479 0.0012797526853892086 0.8260128922893704 0.8460416042368153 0.8703174541875573 0.8889945753993267 0.9048207484991142 0.9193138207919466 0.9340533110494808 0.9498098580968118 0.9626278796684453 0.8976617916440773 0.00010971501668881815 1.0 0.9999999999999998 1.0 1.0000000000000004 0.9999999999943281 0.999998230166522 0.9999966200152333 0.9999951157295421 0.9999937572859375 0.9999933051106693 0.999994564788794 0.9999971684361708 0.9999938432960668 0.00389376789692597 6.498439694240324e-06 6.734799446843261e-09 4.331303201922763e-08 0.00027549602308520017 0.8813595920574777 0.8855780407429408 0.8895315527762653 0.8933005858160512 0.8969080288689267 0.8998773237366194 0.901108265965471 0.0014140867891674794 1.0271441017566752e-06 1.2801615048922398e-07 2.338814822961207e-07 0.00021954631769151845 0.8259744988615553 0.8405090126863372 0.8560274438332073 0.8705595073006145 0.8835550240528772 0.8967062997082289 0.9120722404922786 0.9303153239765918 0.9490349395967814 0.8965032070227984 0.000109712078406056 1.0 1.0 0.9999999999999998 0.9999999999969046 0.999997961669396 0.0031103868106703856 0.002049318733552007 0.002390305554396835 0.002576072304817032 0.004767818526070299 0.9999725558520708 0.9999864266305453 0.9999900710733127 0.0034886642365578053 5.734428056705812e-06 5.6997910646150094e-08 8.759727905720371e-08 0.00025302477692058355 0.8810696667833559 0.8827106446609992 0.8848751379407717 0.8877353524475925 0.8912420247748187 0.8950113203133389 0.89841699105261 0.0014829836517499134 1.0637972844579187e-06 4.941400252406204e-10 2.7209080311170356e-08 0.00021107479734180739 0.8259221166157783 0.8374275352882993 0.8487137119479327 0.8590205407838083 0.8679709503680599 0.8776982704253163 0.8908071676643712 0.9116429862590266 0.9336972254999414 0.8950855308891247 0.00010973600019848024 0.9999999999999999 0.9999999999999999 0.9999999999999997 0.999999999990413 0.9999960605109028 0.002685432986290205 5.145994314267021e-06 2.6715541015662778e-06 3.366945149757585e-06 0.0003389257936935458 0.9999527191309353 0.9999807971530318 0.9999862548794911 0.0045885127627106085 0.000328704647673827 0.0003205890152825365 0.00031893809084226205 0.0006561301792502016 0.6065924537244106 0.5820864525989566 0.6390944083576503 0.7259870653236771 0.7940657547884657 0.8475579721857538 0.8829643113489094 0.0014456280176965981 1.132332454335293e-06 2.934638328518787e-08 5.2696756053207884e-08 0.00020124130845503818 0.8258638839045263 0.8360218357376153 0.8473433705283883 0.8523161360211233 0.8565099459738539 0.860986909667464 0.8702286363049757 0.8837029181847672 0.9177407919593019 0.8925353952873224 0.00010976863809698378 0.9999999999999998 1.0000000000000002 0.9999999999999993 0.9999999999797329 0.9999941647588426 0.0029480044268785765 4.074167381529313e-06 5.604986454777351e-09 5.736947720198267e-08 0.0003309577356990254 0.9999290329081052 0.9999700966733507 0.9999830928549456 0.9999604739421847 0.9999454780936727 0.9999371406836569 0.9999330043779399 0.9999226340524381 0.6066759929713595 0.5055822076400089 0.5215729270061823 0.5680119238904269 0.6845449250635487 0.776258723425244 0.8479214688026198 0.002174213061922119 0.00021928164346352404 0.00021498267440223513 0.00021148587795826978 0.0003962098932617214 0.8258055201743391 0.8355454696914817 0.0007065917201560339 0.0005754723270270986 0.0006453233342860275 0.0006618260372720763 0.0010569380193624902 0.8836680930692185 0.9072609107214099 0.888276119444486 0.00010979348518338717 0.9999999999999997 1.0000000000000002 0.9999999999999989 0.9999999999644874 0.9999922231301236 0.0030999673101021912 4.841013028690663e-06 5.8718844178316835e-08 1.0730800384003637e-07 0.00032786121502567043 0.999901662286801 0.999954247417559 0.9999700188049067 0.9999653998919827 0.9999612657750487 0.999956698965346 0.00461644809685634 0.00032137423073670896 0.00019187463183052868 0.00015831444419326542 0.0010657004005873712 0.5679975858310935 0.6292946060388444 0.7113773677830758 0.8062815131447597 0.8062622014032295 0.8062466136728529 0.8062294950205221 0.8062106877370533 0.806187520703048 0.814080136308061 0.8319961708202641 0.00038259940568457167 2.6884021155448697e-07 2.3408553427969062e-07 2.7104436582263716e-07 0.00016057871075529653 0.8836285707528034 0.9053401937453516 0.8838617183874221 0.00010981079935165298 0.9999999999999996 0.9999999999985517 0.9999999999932145 0.9999999999348063 0.9999914329198516 0.005147783282033172 0.0003381305241615837 0.00032928027184518264 0.0003269089322852312 0.0006449713459494703 0.9998683307925677 0.9999225668285139 0.9999477658973038 0.9999551392515813 0.9999573357169941 0.9999522489319163 0.003137929907449076 4.292406929058992e-06 4.328873094116516e-08 8.412233382650998e-08 0.00016673231827216907 0.5679795847991185 0.6130547821245006 0.6678528825922162 0.7244009509870357 0.7533942145290748 0.7594302573710636 0.7648846715176312 0.7736359748649938 0.7831751941510604 0.7983025523249634 0.8230056246482428 0.0005325249803988704 1.5407782307222995e-07 8.844825861266188e-11 1.4279369771645711e-08 0.00015562979042377026 0.8835792318762818 0.9043930703178098 0.8781442112325836 0.00010981198331340352 0.9999999999986607 0.9999994481562716 0.999997078761181 0.9999956314957785 0.9999907665820371 0.9999717901938889 0.9999599993710498 0.9999481697001396 0.9999242451107471 0.9998987408452363 0.9998938224629046 0.9999072435134924 0.9999242748543696 0.9999388110733828 0.9999473729446231 0.9999465502674421 0.0030435572188098584 3.9772022514749886e-06 3.0681441847508206e-09 2.3527811988726233e-08 0.00016296860359260048 0.5679533635044867 0.6023250791735119 0.6395252934335053 0.6667133258250614 0.6819729769487928 0.6912793494866908 0.7032067609887047 0.7170102219064598 0.7501311287989584 0.7780177580538841 0.8124030967412178 0.0006342335423435149 2.5025873909591065e-07 1.786507969763782e-08 2.9100783730988283e-08 0.00015094298080886784 0.8835187963650136 0.9037838097225628 0.8697177752081015 0.0001097795747283085 0.9999997836084334 0.8641799209257597 0.006350831278836976 0.004871410978347218 0.005054205316241357 0.004812493611081566 0.005094607695333892 0.9999211632963233 0.9999202500252216 0.9999110823414138 0.999903884744102 0.9999007532048887 0.9999056021272629 0.9999156942712122 0.9999349703310684 0.9999405709335425 0.002805428330770133 3.7270891382050807e-06 4.711855292901272e-08 6.608873861827684e-08 0.00015877840189099454 0.5679221963771501 0.5968636962326348 0.007412739201409807 0.006862302657578774 0.006963580297224556 0.007008752554981113 0.0072661457594970285 0.7164242999968983 0.7346766593335807 0.763508868213142 0.798971929473947 0.0012765913938337758 0.00017159551962303685 0.0001652404256120783 0.0001543963907914605 0.00018756398306042546 0.8834472328416473 0.8997323074556315 0.8445504107386683 0.00010961533189209776 0.9999995615099135 0.8464817600900257 0.0002911195301275296 1.0032638847140426e-05 1.0416613800572795e-05 9.367390978886724e-06 0.0003334953910676209 0.9999034031622211 0.003982918969952228 0.002515437562403514 0.0024677521954634737 0.002373981372072049 0.0036057365189842362 0.9998955010846063 0.9999206060529959 0.999933341747691 0.0038086861217611757 0.0003033613347259224 0.00029738749040975244 0.00029554460576888114 0.0004470138203855846 0.5678902062102245 0.5933500465466658 0.0006813080307263603 3.518799866439282e-05 3.494800622331204e-05 3.482876796679789e-05 0.00021724854025090428 0.7154539894009434 0.7304903531138354 0.7514992920359035 0.787047014173056 0.78702435345269 0.786995890026896 0.7869498166267881 0.7868333518102463 0.3678621658073437 0.8864172263170366 0.8923238608801644 0.8004801317345227 0.00010920096644788751 0.9999993427962457 0.8440350452556009 0.0006551556397439263 3.189935219670898e-07 1.2594255596483679e-08 6.31276251017667e-08 0.000324162916417545 0.9998896362524099 0.0006275062897202327 3.159389047554854e-06 2.79634023666912e-06 2.7760885230947122e-06 0.00030902190349973166 0.9998824734317878 0.9999146746601719 0.9999293468089334 0.9999075174649086 0.9998962236985702 0.9998862773889174 0.9998764127763857 0.999870205046285 0.8864176199860254 0.6424486356870116 0.0007522362681883514 5.834796790085109e-07 1.1834396180798757e-07 1.3882221083803144e-07 0.00017846288336040284 0.7140973553842856 0.7266009370424936 0.7429217844309843 0.7655687332090881 0.7761205106093115 0.7791364812214353 0.7815676284492694 0.783757798227928 0.42904320075129787 0.8843287936387616 0.8769936979780931 0.777334809571831 0.0001086403753643925 0.999999123499184 0.8438800113124739 0.001025472986907738 7.435571860482488e-07 4.431692558073383e-08 9.204415096875091e-08 0.0003223097907171822 0.9998801442055857 0.0007324700120253387 2.9100479995271094e-07 2.0777276560956318e-09 4.785119374877864e-08 0.0003029272235553377 0.9998708663598216 0.9999099592200478 0.0026147108202417826 0.002351724590465815 0.0016595194857310324 0.0014472229420162796 0.002551353474784766 0.9998431218497544 0.9437133290800861 0.7093448377193365 0.0008712827726847282 6.090761678644031e-07 2.789846271828199e-08 4.7644040951722453e-08 0.0001725577758487235 0.712130442892568 0.722340544422647 0.7340397534012736 0.7501841170112644 0.7617566621127656 0.7694846751509442 0.7750389471144992 0.7799209406097837 0.5238496730575453 0.8418111811973875 0.8719908021958382 0.768083593649481 0.00010801851977911651 0.9999989093980859 0.8541877911585308 0.0029866343032037813 0.0002832262670659797 0.0002758794825393017 0.0002628469274625297 0.0005051971376496385 0.9998717421274184 0.0007018654561733816 3.4447965633573643e-07 2.8631375493719303e-08 7.240305865582106e-08 0.0003001553125089927 0.9998621343869337 0.9999065843145939 0.0013343117763607404 2.8185817749835545e-06 1.3189963721938873e-06 1.1247605105748265e-06 0.00028904118606257 0.9998141531248009 0.9542850816152997 0.7722059804391277 0.0010274030755845409 0.00021433309154281395 0.00021010770874966154 0.00020576623465549192 0.00036138353407067696 0.7081253858469502 0.7151311059080852 0.723973651378151 0.7358685798058653 0.7477873588752862 0.7584651959143985 0.7674256127444342 0.7751529842518751 0.5905558322872805 0.794961888183358 0.8613376902705231 0.7621195284317089 0.00010736677297988727 0.9999986836674583 0.866845405725249 0.8668190914117957 0.8667771667723951 0.8666998916315113 0.866523339699869 0.6324072299063808 0.6326296345997653 0.0011830268500168618 0.00019381599857770394 0.0001897091376988633 0.00018542252787363215 0.00047238682671731265 0.9998591608063928 0.9767959283265933 0.00143240208640347 1.072326467880496e-06 1.1990823404093037e-09 4.0516020180990245e-08 0.00028251866346885846 0.9997772747263649 0.9661452788899476 0.816955164627903 0.8168882941633675 0.8167829786645147 0.8166515326837587 0.8165002602997039 0.8163355942151134 0.8256097420045296 0.795093780392864 0.772392731139915 0.7586711101466959 0.7535001432573278 0.7560038026951351 0.7627823076992676 0.770958640845334 0.6355936855060994 0.7635178570146917 0.8467664099998021 0.757145662603614 0.00010670278750864796 0.9999984876288776 0.9027054861201742 0.8792460981251748 0.8746960375386785 0.8714647764359762 0.868757542501815 0.632417705286793 0.6326202432927719 0.6325955637064753 0.6325669751691814 0.6325340375669116 0.6324956379705877 0.6323992513321359 0.9926516502900016 0.9768201677819625 0.001418821295445023 1.1353615761980873e-06 3.6844381004439526e-08 7.295397902291716e-08 0.00027469856804361896 0.9997266997190637 0.9773512605942539 0.905728157626746 0.8696532854507604 0.8605877304313959 0.854161379137254 0.8495000097300974 0.8494180975201431 0.8489523044007533 0.8463410883249907 0.8341863124811945 0.8127000481821192 0.7949675292157249 0.7715910707185086 0.7659548020911291 0.7694870929899842 0.6654870808191907 0.7445243008764905 0.8317662494966522 0.75205609939419 0.0001060313681894212 0.9999982805928131 0.9195986649540169 0.8924359905236742 0.8813631911264093 0.8754669310724164 0.870760519544256 0.6741907767986586 0.6405070800541528 0.6366990547564643 0.6363723584999939 0.6362693032148709 0.6356819273906397 0.6346189321907371 0.9132695438929126 0.9707228180621384 0.0024521784739604284 0.0002665104751918306 0.0002610445210138649 0.000256604485204764 0.0005013889889852415 0.9995448133285942 0.991798475141597 0.9625485836439591 0.9384768734486332 0.9187824197928743 0.8986242118579049 0.8895315778750639 0.0010831654370682942 0.0006310183177212839 0.0008298418717094787 0.0009337409315742449 0.0016146402488168585 0.7949478145214726 0.780419025394906 0.7698011897552063 0.7695488950834233 0.6851799438293624 0.7334862269988671 0.8181361210627401 0.7464176642317186 0.00010534935470652901 0.9999980610269018 0.930515751598139 0.9009077065818674 0.8868303091224293 0.8785997253805782 0.8725489205393938 0.6961873127672652 0.0010596785385383971 0.0008391134408666049 0.0008725388193384059 0.0008204794735502482 0.0013430280355598942 0.6346027587324113 0.818495570368491 0.9424614254542312 0.9424386535086706 0.9424182552955594 0.9423973729609075 0.9423787716422726 0.9423689959032309 0.619327823144371 0.6595003590036037 0.7057283358448155 0.7418428940627897 0.782143563934128 0.8101539227983962 0.858366361174316 0.000998160036809997 7.229222230197647e-07 4.013186279927528e-07 5.417929867479902e-07 0.0001706330495431242 0.7949298297247818 0.782371132092467 0.7724274909681713 0.7700774887405606 0.6984146429077092 0.7270440337459927 0.8063746477129107 0.740183574543656 0.0001046508388503035 0.9999978336108187 0.9372783088303636 0.9070131321056051 0.8909472814160612 0.8811540044984301 0.8739948065171338 0.7141256019822677 0.0004836608091563539 6.561533979199269e-07 5.455765977071894e-07 5.593528467919988e-07 0.000174327798069242 0.6345876901323784 0.784196676336498 0.8713334837223182 0.904869890779298 0.9101365441363497 0.9129690585542576 0.916757584151388 0.915888829895698 0.0013941583790047514 0.0005027245980899823 0.0007797947582975254 0.0009299114087840938 0.0016960820910517462 0.8101342866621972 0.8435347242315128 0.0010307445668596503 5.606843979823437e-07 3.2617481887602196e-10 1.8051702461500845e-08 0.00016699817631246706 0.7949094253268533 0.783483830906382 0.773917808487052 0.7706346323738609 0.7074887740201752 0.7230869978441193 0.7962898184718415 0.7334372467056408 0.0001039295518294556 0.9999976011887325 0.942035807541449 0.9116234664570255 0.894345352420447 0.883384555209026 0.8753355032434116 0.7281652802527474 0.0006136045585328027 2.473214920314135e-07 2.9255096748510254e-10 2.3321031424021882e-08 0.00017062546055370193 0.6345705129180911 0.7582065413743098 0.8400480584848896 0.8604944258328625 0.8693331768100736 0.8727712367489933 0.8803454320673484 0.8887125217862215 0.0013240856433358447 9.903070794593509e-07 4.2662521098875627e-07 6.035458854645811e-07 0.0001936374840311561 0.8101183610732864 0.8420385540719796 0.0010210781303472847 6.21425037501762e-07 2.0814893447439388e-08 3.7140163465238044e-08 0.00016390083173238799 0.7948878727453913 0.7842614479824513 0.7750478937815762 0.7711601879809954 0.7142420404358453 0.7204981960171372 0.7874398665039293 0.7262978814489448 0.00010318011365406295 0.9999973659881793 0.9457842588359477 0.9155668009460286 0.8975149834021235 0.8856824252463851 0.8768809197441204 0.7410857271964095 0.0007022253786083902 3.5880254803557024e-07 2.699867512083449e-08 4.7124306433812137e-08 0.00016721866410486183 0.6345533401778585 0.7521725792887042 0.0011407262561193342 0.0011299512606067629 0.0012906662311114514 0.0013685824584897517 0.002251917156486906 0.8886929973762626 0.0015298487299769256 9.23817823210084e-07 5.059594136561787e-10 2.280971566754442e-08 0.0001900704269694082 0.8101005677450612 0.8388580794093888 0.0016617941237302835 0.00018775952936825823 0.00018407183236028482 0.00018090714308827062 0.0003366246967605782 0.7948682692244413 0.7850523046441722 0.7761563061189922 0.7717251671890661 0.7198405508843497 0.7187504870659168 0.7793999966257318 0.7188955647361449 0.00010239875856888145 0.9999971293898977 0.9490913097006842 0.919335225116841 0.9008466316101147 0.8884548973159331 0.879046687685286 0.7656437432204886 0.0014822922486672375 0.00021109623020891232 0.00020496695292620426 0.0001970550866344241 0.0003439612415588049 0.6345413793996466 0.7441626583098476 0.0006235629407923851 9.165941162437159e-07 8.881489622154178e-07 1.1025020420854811e-06 0.00022848515767934487 0.8886809758635354 0.0010483367651176136 6.744060759852632e-07 2.5597492266283474e-08 4.576931400034359e-08 0.0001866967390991403 0.8100778408968935 0.8347602171502531 0.8347375814621293 0.8347170358413112 0.8346949484259562 0.8346702671032078 0.8346301792561168 0.7955447121572915 0.7865188625939002 0.7775493195780857 0.772426089855557 0.724983649179215 0.7176539887948991 0.7718664529661913 0.7113615359490545 0.00010158368864726782 0.9999968921790461 0.9521878943904218 0.9231343556080184 0.9045668727682535 0.8918323292470136 0.8825632866219453 0.789470960438844 0.7894464288121408 0.7894153009521299 0.7893713345245541 0.7893098239428176 0.7891222151191581 0.6659389091518829 0.7417817144965176 0.0008612779753404998 4.88737089094126e-07 5.872128995510622e-10 2.9195804013454092e-08 0.00022501060054603696 0.8886677870425641 0.0017587538678022201 0.0002173463991560862 0.00021141127738901874 0.00020539243759971494 0.000378617258108058 0.8100501844380504 0.8237636844114012 0.8278332739686058 0.8282167173698866 0.8283043193817662 0.8290140996603118 0.8301682801588961 0.808765837763935 0.791199655128135 0.7797391256774264 0.7733922100959911 0.7299631105231593 0.7171734522757407 0.7646809348512255 0.7038253989285792 0.0001007353398756935 0.9999966545302006 0.9550410903254195 0.9269130733738609 0.9085526659976094 0.8959504958825371 0.8865773026984649 0.8330372735097074 0.8107279299633495 0.8053166051635582 0.8015310946118872 0.7983100732853724 0.793944830756168 0.7087488913992415 0.7391040615783381 0.0010677685365150203 7.965282710560353e-07 2.048174743418831e-08 4.7372054082458234e-08 0.00022295111981433032 0.8886559651954437 0.8886290868309886 0.8885990576026804 0.888565530270978 0.8885311480357724 0.8884878867102706 0.8257504345933253 0.0008303456085033749 0.0007794067876846376 0.0009171750405096724 0.0009041790510901952 0.0015458294736733463 0.830144123921618 0.8163810097639385 0.796402865832321 0.7826029956107495 0.7746797550607264 0.7348559830985684 0.7173266145797538 0.7577980846697803 0.6964211409559995 9.985627338802263e-05 0.9999964161283706 0.9574250070541939 0.9302869648003974 0.9125140196455358 0.9002691719004468 0.8914215246874815 0.8581562156426876 0.8361581117289182 0.8231011094228887 0.8151763118007748 0.8090973885403185 0.8028946054035004 0.752440194105724 0.7438168116596148 0.0021003676169734 0.00017780008611150683 0.0001741863881547043 0.00016995581703693876 0.0003812296275289719 0.888631298813845 0.8886280146881198 0.8886204871886688 0.8886117112009941 0.888598276620516 0.8885628157270983 0.8493868311311842 0.0008727144690515246 7.425004599636189e-07 4.783214622669724e-07 5.328540836722735e-07 0.00017052705267731462 0.8301200440793132 0.8180517204096396 0.8003964412385339 0.7854874917447291 0.7762450314398898 0.7396888412616296 0.7181598768803343 0.7512496410008425 0.689302617034822 9.89515900009229e-05 0.9999961757680711 0.9588391128999598 0.9327222075614939 0.9156537252219673 0.9043826476485354 0.8962480666172463 0.8757752351948732 0.8561446173900595 0.8406149322516091 0.8284764095657207 0.8192243341672952 0.8140605716662422 0.7987942443192868 0.7660110059717964 0.7659931451020444 0.7659803712241857 0.76595170835683 0.76590299563265 0.7658201369706049 0.8365527497161035 0.8582113739670758 0.8649961882979397 0.8673529110841284 0.8693668539469445 0.8748089533140511 0.8654106799026172 0.0011415023716662106 6.285199336534727e-07 3.824559801720375e-10 1.7291084934207146e-08 0.00016686328184632024 0.8300920882887795 0.8191693046468944 0.8030729561514641 0.788297155936311 0.7780686132067816 0.7445941284458216 0.7197753500021487 0.7451268953739837 0.682659872282793 9.802896895135469e-05 0.9999959315929728 0.9587917464171268 0.9326578873826992 0.9176710151394837 0.9074322954217546 0.9008895083019803 0.8888159381343913 0.8740724670629957 0.8558578707657482 0.8401497472356184 0.0009371739938254416 0.0008892560743617326 0.0011536019082916038 0.0012219750258039611 0.0022252371251071726 0.7659517628957311 0.7659437909598746 0.765912420138439 0.7658433249185386 0.7903627340464794 0.0006367184472251046 0.0006130078476245329 0.0008203120959081763 0.0009957121333113409 0.001906100410845218 0.8653893623582936 0.0012664368156130603 7.409830281670421e-07 1.6700247305695967e-08 3.19643017862373e-08 0.00016360721198256122 0.8300610815847442 0.820183099317643 0.8056324683832538 0.7912621723829553 0.7802862299538009 0.7497827063713342 0.7223608476599797 0.739606863931179 0.6767320365664619 9.709922191514704e-05 0.9999956843750417 0.9576347610826479 0.9310541229130194 0.9146193183477334 0.90818361790043 0.9046890530340641 0.89965684809842 0.8904631678217877 0.878580405819862 0.8504656267761366 0.0008256123369241422 8.096726806500066e-07 6.980796822026858e-07 8.867714800187364e-07 0.00017330625311618824 0.7659135099738265 0.7659228884676825 0.7658991262367779 0.7658354339675378 0.781940880012028 0.0005945995442224299 4.205830739160566e-07 3.667682805552488e-07 5.838652547351268e-07 0.00017891633810437638 0.8653726931395146 0.0016343438188554376 0.00017178303108053428 0.0001668483000232528 0.00016174721825777468 0.0003141980478265165 0.830027832429539 0.8214108173805098 0.8086035585516529 0.7948138556495988 0.7831549517964156 0.7555033890956346 0.7261723855670466 0.7349842872483044 0.671808896851962 9.617637424620805e-05 0.9999954156992283 0.9521245815909131 0.8032081234197664 0.001567409751614782 0.0011186981001816319 0.001203473426336394 0.001223498428097989 0.0019225752697509685 0.8785595720337256 0.8574666584825514 0.0009548590748342621 5.052186828897583e-07 4.4350454944547044e-10 1.9022354471155384e-08 0.00016756771786274153 0.7658579451125275 0.7658865003633142 0.7658709899440769 0.7658124506710429 0.7780198595916191 0.0007295781082123585 3.287611494219894e-07 2.083588697239482e-10 1.8464580158683733e-08 0.0001761070652336395 0.8653540111020513 0.8653220329199897 0.8652803864613607 0.8652272013731674 0.8651585505459806 0.8650382071005468 0.8297910337634438 0.8233305548282601 0.8123929987200046 0.7993242257981447 0.7870086242042984 0.7619743450960342 0.7314773606686715 0.7316874543785564 0.6682224900788216 9.52773114441528e-05 0.9999951258690889 0.9468223514859324 0.7810988885132875 0.00021870595978473192 6.536352111744684e-07 7.083481709131518e-07 8.125990283199627e-07 0.000213919728917123 0.8785440814728985 0.8581966610041256 0.000977611928520031 5.786915541970719e-07 2.1891498305645295e-08 3.8054418234492474e-08 0.00016121507967055906 0.7657775594944767 0.7658250920709366 0.7658235847534518 0.7657794479989244 0.7754656712113523 0.0007980540750385032 4.272230801751042e-07 1.278507483031259e-08 2.9742588067147665e-08 0.0001724646438569107 0.8653065835801351 0.8653028348442643 0.8652817466042324 0.8652489859331319 0.8651991678662307 0.8650982647109545 0.8486751412586268 0.8325881789429724 0.8193456391050387 0.8056797361545122 0.7923549160845301 0.7694207753827375 0.7384943793590644 0.7302454231736315 0.6663373903276297 9.442097739479058e-05 0.9999948387588132 0.9465909069744051 0.7800308140648616 0.0003755166847814288 9.754011467332268e-08 2.7722017818644133e-10 2.566769648351276e-08 0.00021003548103923936 0.878527152737887 0.8600351427958198 0.0016308293660052219 0.00019695664268737907 0.00019209305430419174 0.00018755028109168902 0.0003321092930715432 0.765557207241798 0.7656370423784048 0.7656944961008936 0.7657062365781445 0.7723845451233332 0.00132759542783764 0.000140638746908741 0.00013753879807877815 0.0001349375287633616 0.00028590211190329586 0.8646447120777918 0.8646713939921663 0.8647265803461672 0.8647345077265116 0.8647530156576866 0.8647796589789154 0.8576542893634037 0.844643086050404 0.8299845614157245 0.8148853540922749 0.7999415368731194 0.7782175846608849 0.7474038619603063 0.7312261638410567 0.6665480224553088 9.362674080216816e-05 0.9999945546501892 0.9480325020580438 0.7830381529938321 0.000486155015097617 1.821323314783123e-07 2.064173809274506e-08 4.366528919693366e-08 0.00020653355815498838 0.878505857542955 0.8623484730112554 0.8623222460719184 0.8622940951155873 0.8622627138760105 0.862231545682464 0.8622055057556008 0.8627058983225377 0.8249627569582866 0.7989943573629154 0.7838388463374104 0.7761131793526828 0.7760684073461317 0.7760121327772076 0.7759440333543167 0.7758664086783771 0.7757845547404727 0.7813315543208406 0.7865995716755012 0.7969244629407793 0.8102718754936652 0.823653684348455 0.8365888968837543 0.8447010651790449 0.8445901017022623 0.8370220269934674 0.8245089659707577 0.8094496566239547 0.7886254682103538 0.7583581329142117 0.7351771362144468 0.6692873756875469 9.291276931076708e-05 0.9999942742964444 0.951870494230565 0.8038537944489287 0.0010861945652702952 0.00019023914217496368 0.00018372932577181717 0.0001767793023234554 0.0003702935038910594 0.8784780916796322 0.8693064100431256 0.8659948212822683 0.865394590016358 0.8650674299647502 0.8648506672389746 0.8646836309744789 0.8644268258726908 0.856347844920433 0.8376417680307457 0.8167468475020453 0.8030769918931043 0.7940969366702892 0.7922098457984789 0.7912575129498937 0.7907494550422904 0.7912847873201406 0.7916559180320402 0.7927873166904335 0.7930934551432937 0.7959200126222369 0.8022388595201397 0.8121081781878016 0.8234193677829591 0.831927857616377 0.8341781134570265 0.829187866223405 0.8180772382105982 0.7998315144897353 0.7712076479924773 0.7425321591288744 0.6750627335096533 9.2294495170019e-05 0.9999940103820328 0.9600075420847034 0.829802544979181 0.8297763787173864 0.829745726199956 0.8297090387418227 0.8296702107416675 0.8296323788407336 0.8498611095553801 0.8592780231994649 0.8614364709905561 0.8624029039996917 0.8627882288468162 0.8630086849228382 0.8631768674856274 0.8633291033280037 0.8619401150655882 0.855898022688759 0.8451679016195798 0.8337553280605186 0.825820097543135 0.8206485033854296 0.8181863481176747 0.8168817417836091 0.8162621603758543 0.8160477057992381 0.814840346459481 0.8126776641779961 0.8099181676446644 0.8081599639371296 0.8090185375147645 0.8133167695867306 0.8198460279520287 0.8255477969273468 0.8271087970533031 0.8224719589461993 0.8096123025903272 0.784984673266592 0.7534101549374579 0.6844173957695414 9.178309729650238e-05 0.9999937469713863 0.9682114139521436 0.8911049311623065 0.8617294410091467 0.8562642363016055 0.8533848857348509 0.8515007421120179 0.8489992737860202 0.8491557497712636 0.8519552396124502 0.8544672228157496 0.8560655166517498 0.8571080702916515 0.8578308928240588 0.8584469837183555 0.8590814777294513 0.8595193151436428 0.8588068404421932 0.8560124066564093 0.8517234670