# vtk DataFile Version 3.0
vtk output
ASCII
DATASET RECTILINEAR_GRID
DIMENSIONS 41 41 1
X_COORDINATES 41 double
0 1 2 3 4 5 6 7 8 9 10 11 12 13 14 15 16 17 18 19 20 21 22 23 24 25 26 27 28 29 30 31 32 33 34 35 36 37 38 39 40 
Y_COORDINATES 41 double
0 1 2 3 4 5 6 7 8 9 10 11 12 13 14 15 16 17 18 19 20 21 22 23 24 25 26 27 28 29 30 31 32 33 34 35 36 37 38 39 40 
Z_COORDINATES 1 double
0
POINT_DATA 1681
FIELD FieldData 1
Concentracao 1 1681 double
1.0 1.0000000000000002 0.9999999999999997 1.0 1.0 1.0 1.0 1.0 0.9999999999999998 0.9999999999999996 0.9999999999999989 0.999999999999999 0.999999999999999 0.9999999999999989 0.9999999999999989 0.9999999999999167 0.999999999982777 0.999999999172531 0.9999999818986501 0.9999997878576238 0.9999996199377422 0.9999994493614748 0.9999993040416676 0.9999991510576364 0.9999989878514959 0.9999988169484421 0.9999986396925752 0.9999984572455246 0.9999982703416951 0.9999980794122821 0.999997884610785 0.9999976858055856 0.9999974824218174 0.9999972690681421 0.9999968474109533 0.9999899303420384 0.999832758567856 0.9971969852461118 0.9667020992591444 0.7470011076545245 5.7815762732001264e-05 1.0 1.0000000000000002 0.9999999999999996 1.0 0.9999999999999998 0.9999999999999996 0.9999999999999996 0.9999999999999991 0.9999999999999991 0.9999999999999984 0.9999999999999982 0.9999999999999984 0.9999999999999986 0.999999999999998 0.9999999999955483 0.9999999672308247 0.9999916378050904 0.9994893929051224 0.9855903570268907 0.8055312023971889 0.8137903146871223 0.8304500940916845 0.8810229800411374 0.9073063924537773 0.9258260681170045 0.938373858979062 0.9475496086853885 0.9545373077511835 0.9601026351163608 0.9647170851664119 0.9686931906689653 0.9722438861013806 0.9755184244425691 0.9786227001222289 0.9816314320805459 0.9845896754606542 0.9873861547034551 0.9877098071825073 0.9602188821027445 0.7437685115071447 5.7631865223416226e-05 1.0 1.0000000000000002 0.9999999999999997 1.0 1.0 1.0 1.0 0.9999999999999993 0.9999999999999991 0.9999999999999989 0.9999999999999984 0.999999999999998 0.9999999999999976 0.9999999999999963 0.9999999999509758 0.9999997361335804 0.9999472814813617 0.9977495202907589 0.9375637790971902 0.00708348108532364 0.0018763265748296724 0.8303854050482835 0.8502417914185174 0.8737816691785364 0.8911381825666624 0.9050478219900454 0.9160948506362812 0.9251402908836367 0.932749730836226 0.9393535834791339 0.9452693682075523 0.9507369056838384 0.955939608386627 0.9610182194478611 0.9660792765746379 0.9711954813710907 0.9762760264251518 0.9790267919068004 0.9541887284604719 0.74093376046317 5.746213653817765e-05 1.0 1.0000000000000002 0.9999999999999999 1.0 0.9999999999999998 0.9999999999999998 0.9999999999999994 0.999999999999999 0.9999999999999989 0.9999999999999984 0.9999999999999982 0.9999999999999984 0.9999999999999976 0.9999999999999947 0.9999999997014527 0.999998776717969 0.9998188711061791 0.9933214808038332 0.8840536186195326 0.005002625546970226 0.00021490479818343767 0.8302582249073582 0.8445564325271363 0.8594684583995902 0.8736778894837938 0.8858455116841137 0.8963364590282851 0.9054204683391333 0.9134349181652303 0.9206709940467112 0.9273812437247957 0.9337795130281842 0.940045914267254 0.9463321401763916 0.9527634643095124 0.9594348194833257 0.9662780641414124 0.971028623740574 0.9485860108886149 0.7385943511138796 5.7309332497002726e-05 1.0 1.0 1.0 1.0000000000000004 0.9999999999999999 0.9999999999999996 0.9999999999999997 0.9999999999999994 0.9999999999999993 0.9999999999999992 0.9999999999999989 0.9999999999999987 0.999999999999998 0.9999999999999843 0.9999999986446121 0.9999957843220384 0.9995167934636144 0.9862856098801185 0.833010571629323 0.005214795618604806 0.00021378592186535887 0.8300550548966303 0.8411338937676157 0.8526217947921951 0.8636833329587338 0.8739358122517311 0.8832126301760503 0.8916230691445229 0.8993300365622112 0.9065260104578077 0.9134029746777299 0.9201451381410575 0.9269244752686036 0.9338997741461956 0.9412146292700512 0.948990166479318 0.9571893199733917 0.9636016822162098 0.9433957646352487 0.7368999775578297 5.717719100676471e-05 0.9999999999999998 0.9999999999999997 1.0 1.0000000000000002 0.9999999999999998 0.9999999999999993 0.9999999999999992 0.9999999999999991 0.9999999999999991 0.9999999999999986 0.999999999999998 0.9999999999999982 0.9999999999999973 0.9999999999999412 0.9999999948369145 0.9999876648826158 0.9989091504514911 0.976271062143496 0.7790733232170338 0.0048023253907178536 0.00021052435201597842 0.8297778987191979 0.8388932738602912 0.8481715934210102 0.8572491356346476 0.8658697737162536 0.8739487395232347 0.8815059494625098 0.8886391703996541 0.8954835141916638 0.9021942522143085 0.908936808475745 0.9158800267736185 0.9231935651023199 0.9310439579303706 0.9395851404183423 0.9488228940214735 0.9566341888101454 0.9386103633216073 0.7360488884185648 5.7070293516667935e-05 0.9999999999999999 0.9999999999999999 0.9999999999999997 0.9999999999999998 1.0 0.9999999999999991 0.9999999999999992 0.9999999999999984 0.9999999999999982 0.999999999999998 0.9999999999999979 0.9999999999999977 0.9999999999999964 0.9999999999997865 0.9999999822297503 0.9999672173600078 0.9977564144302181 0.9617783964593872 0.7201055675362933 0.004327831325540934 0.0002056902842615596 0.8294191252162206 0.8371827443909712 0.8449587695824224 0.8525945914938539 0.8599571128372417 0.8669916569373607 0.8737175893771373 0.8802070403420238 0.8865708037045016 0.8929462751402001 0.8994909292084561 0.9063772670951187 0.9137903823075436 0.9219246984155662 0.930974919020585 0.9410025859875835 0.9500125349538423 0.9342207623758583 0.7362773667471952 5.699380196948458e-05 0.9999999999999997 0.9999999999999999 0.9999999999999994 0.9999999999999994 1.0 0.9999999999999991 0.999999999999999 0.9999999999999987 0.999999999999998 0.9999999999999976 0.9999999999999981 0.9999999999999972 0.9999999999999968 0.999999999999256 0.99999994190782 0.9999170516215465 0.9955912653347254 0.9407431273989274 0.6538972490100715 0.003748682500315005 0.0001996597942911834 0.8289703664055964 0.8357515008481482 0.8424076280597455 0.8489484777139927 0.8553054974928025 0.8614557478957733 0.8674243567441441 0.8732782753972069 0.8791191123482792 0.8850775867783406 0.891310296097184 0.8979980303503098 0.9053449479266639 0.9135779611585733 0.9229386450336831 0.933558052269365 0.9436172189668726 0.930209569190071 0.7378506105951713 5.695307155249043e-05 0.9999999999999996 0.9999999999999998 0.9999999999999994 0.9999999999999993 0.9999999999999999 0.9999999999999992 0.9999999999999989 0.9999999999999982 0.9999999999999981 0.9999999999999967 0.999999999999997 0.9999999999999963 0.999999999999995 0.9999999999974156 0.9999998123512479 0.9997934457054494 0.9915095709641336 0.910024183883226 0.5789165288725815 0.0031123393574360027 0.00019268597193469001 0.8284182790005907 0.8344511325051123 0.8402278238824011 0.8458894902967603 0.8514166411084678 0.8568074833181748 0.8620949296418527 0.8673457016406181 0.872658399973355 0.8781620722632537 0.8840158916051093 0.8904108998752126 0.8975722046272717 0.9057613555079197 0.9152730286944937 0.9263210838661603 0.9373181455490879 0.926538422504679 0.741045447404066 5.695309524142309e-05 0.9999999999999997 0.9999999999999998 0.9999999999999991 0.9999999999999989 0.9999999999999992 0.9999999999999988 0.9999999999999987 0.999999999999998 0.9999999999999974 0.9999999999999959 0.9999999999999964 0.9999999999999956 0.9999999999999933 0.9999999999826263 0.9999993782113455 0.9994813098905745 0.9837179934558598 0.8650148916346327 0.49409506657665275 0.002446008174972115 0.00018493489154900445 0.8277428762127297 0.8331847240922253 0.8382386731823741 0.8431644372989204 0.8479814817389398 0.8527048744685806 0.8573737754306567 0.8620557607740148 0.86684816171521 0.8718795991834261 0.8773124327005174 0.8833475840101352 0.8902309603031975 0.8982600434309016 0.9077867746897426 0.9191215302400191 0.9309684521721406 0.9231312457988089 0.7461249491559561 5.6997740505279664e-05 0.9999999999999998 0.9999999999999993 0.9999999999999991 0.9999999999999988 0.9999999999999987 0.9999999999999987 0.9999999999999982 0.9999999999999974 0.9999999999999966 0.9999999999999942 0.999999999999995 0.9999999999999942 0.9999999999993519 0.9999999993029779 0.9999977702030824 0.9986587687859697 0.9685890280450197 0.7991959495767327 0.399634056042067 0.0017851598656714806 0.00017651542124327456 0.8269130871537433 0.8318726117966617 0.8363107704871243 0.8405978935556229 0.844787605384689 0.8489092209298923 0.8530068999627233 0.8571488511593796 0.8614307768245825 0.8659802250829832 0.8709615812003386 0.8765839182567302 0.8831118107915467 0.8908781141576115 0.9002949777914776 0.9117827300283019 0.9243974969204793 0.9198536634009086 0.7533045082431334 5.708881121233303e-05 0.9999999999999998 0.9999999999999992 0.9999999999999989 0.9999999999999988 0.9999999999999981 0.9999999999999984 0.9999999999999976 0.9999999999999957 0.9999999999999962 0.999999999999995 0.9999999999999941 0.9999999999995548 0.9999999998273393 0.999999948537445 0.999989392656985 0.9963506741422103 0.9386792542832866 0.7041422209434063 0.2980581277374539 0.0011728352802988559 0.00016745441060373513 0.8258785291356332 0.8304320638596191 0.8343300103769372 0.8380465416485642 0.8416669051068226 0.8452331907036053 0.8487938313639722 0.8524169111156337 0.8561958629270991 0.8602555703040686 0.8647599234516207 0.8699228262914159 0.8760239036297244 0.8834287761930989 0.8926115067608973 0.9041137034040035 0.917402201777891 0.9164899254123503 0.7627013699586969 5.722497031045154e-05 0.9999999999999994 0.9999999999999989 0.9999999999999986 0.9999999999999989 0.9999999999999981 0.9999999999999981 0.9999999999999966 0.9999999999999937 0.9999999999999938 0.9999999999999786 0.9999999999977418 0.9999999996902602 0.9999999648679463 0.999996881492574 0.9998087718826414 0.9892442164716766 0.878744673363261 0.5712813623879766 0.1957738652157422 0.0006589456058359926 0.00015763630302374456 0.8245520782142745 0.828753233177393 0.8321664506484155 0.8353618800678285 0.8384546118726293 0.8414987530775433 0.8445467998698406 0.8476660666371614 0.8509466138432273 0.8545088082599925 0.8585128329870696 0.8631727383205401 0.8687774173898131 0.8757203204735099 0.8845362978884823 0.8958993793901919 0.9097306097271154 0.9127163011806501 0.7742944613557721 5.7400794767526916e-05 0.9999999999999994 0.9999999999999961 0.9999999999999742 0.9999999999998674 0.9999999999994619 0.9999999999981347 0.9999999999941156 0.9999999999822937 0.9999999999468484 0.999999999824937 0.9999999958868648 0.9999998511351823 0.9999950582574836 0.9998630958200145 0.9971756622870169 0.9642417655654836 0.7590340624976861 0.3985022544182656 0.10427825411337946 0.0002900519114813337 0.00014667643022673956 0.8227656557087639 0.8266514277683192 0.8296225790790127 0.8323347439315117 0.8349313763758319 0.8374783724133082 0.8400321361546167 0.8426590933096431 0.8454451098938092 0.8485039045334163 0.8519881557258235 0.8561059108707214 0.8611471901631963 0.8675240677512696 0.8758284499237311 0.8868691349490837 0.9010733429846721 0.908069154700565 0.787710665323078 5.760562614936304e-05 0.9999999999999987 0.9999999997694987 0.9999999981112694 0.9999999911028977 0.999999968926948 0.99999990793833 0.9999997523199344 0.9999993647059754 0.9999983889728301 0.9999958302204764 0.9999884748159036 0.9999587911742082 0.9995986794324057 0.9962214234187036 0.9710449457022281 0.84702953133742 0.5325455115912039 0.20666070457659735 0.0385183358428426 8.596207761895452e-05 0.00013369775534506867 0.8201095607298862 0.8237026807682218 0.8262647836089625 0.8285235588261427 0.8306487500520194 0.8327182887209515 0.8347933413838058 0.8369401293206322 0.8392404237585149 0.8418002146153016 0.8447609973739406 0.8483176983729156 0.8527484747726167 0.8584680636292759 0.866111106614431 0.8766393901376901 0.8909408358540694 0.9019383089578435 0.8026224581104104 5.782468422156225e-05 0.9999999999988731 0.999999448436388 0.9999964395609957 0.99998753117665 0.9999660527568566 0.99992173235157 0.9998351123941432 0.9996663911221659 0.9993333657113224 0.9986580828027137 0.9972332752558756 0.9940518283629964 0.9862641416620598 0.9473364509379905 0.8257614006821614 0.5607128270656366 0.2415374962676238 0.06277916096443402 0.007761492555753827 1.4038048440912374e-05 0.00011690269682468178 0.8147467015274672 0.8180480529493839 0.8202154600251479 0.8220323009729745 0.8236943811702102 0.8252951761533996 0.8269063519227546 0.8286007390891914 0.8304629212486224 0.8325962201298167 0.8351319179282339 0.8382447513337536 0.8421835364921672 0.8473257246986001 0.8543122839136623 0.8642201432148113 0.8786442221187537 0.8931232831446991 0.8166786818442932 5.8036797790129834e-05 0.9999999998168699 0.9998840686038515 0.999478542149946 0.9984132213352157 0.9966739119409287 0.9941104563485238 0.9902403963849973 0.9843200610805162 0.9750827326175671 0.9603392570190388 0.9361766168860229 0.895338489997897 0.8235958858921539 0.6889162318415206 0.45951946308232444 0.21047291615114294 0.05365222521792861 0.008698493142257076 0.0006882472982942683 9.916745550008253e-07 9.254043209428898e-05 0.7913799272533742 0.7942907248050792 0.7959830470058357 0.7972747840774431 0.7984035407555629 0.7995073042763639 0.8007089663756031 0.8021349130021272 0.80392451853938 0.8062296738466386 0.8092136984429165 0.8130565092190981 0.8179621521891796 0.8242308725144439 0.8322761126023189 0.8433467104335567 0.8590917006632368 0.8806065146866162 0.8308935575314336 5.82244140089985e-05 0.9999999910545245 0.9926117051981647 0.9672215289852858 0.9384490005136323 0.9100559564992375 0.878854157148659 0.8431022845467646 0.800638677766648 0.7490940592476029 0.6854673716961889 0.606170587224226 0.5072657832347506 0.38569814039150885 0.24344744433352208 0.1054611027061149 0.030797044586596017 0.004852873874966738 0.0005010873408280291 2.675230226473188e-05 5.192876040588461e-08 5.349112271116436e-05 0.6362041318924513 0.6380036413588379 0.6388004005025436 0.6392397521784184 0.6396162343376407 0.6401926113252183 0.6412573473517379 0.6431395187751942 0.646211425763686 0.6508857062314926 0.657610090034808 0.6668533310527361 0.6791319159729776 0.6948731542005331 0.7152472573749931 0.7387444861273808 0.7793797302428811 0.8158139684269357 0.8263734543468272 5.836086257431799e-05 0.9999998055240917 0.8121332143260884 0.007576784372029556 0.0055814050085077815 0.006046779217597747 0.005799470809442458 0.005466612580344975 0.004987181540766178 0.004403594266671038 0.0037301070266690674 0.002986647854380536 0.0022013105569634625 0.001422123117647495 0.000728721378717811 0.00025330986215799415 6.123785817064354e-05 8.197797940740446e-06 7.049866114056889e-07 5.124473167154997e-08 1.2861845801327265e-10 1.4029603425495392e-07 0.001475062647588494 0.0024874332857849316 0.0027715678913668718 0.0027636725761382777 0.0027506085832592862 0.002722495437780588 0.0026944876929113418 0.002668157876359371 0.0026469919700185867 0.0026338136797500094 0.0026315152550538084 0.002642171002721943 0.0026671653377198868 0.002700864713602637 0.0027583905428642127 0.0026957738249132122 0.0033190157328285754 0.8152906857569784 0.8228947249830061 5.847206590344301e-05 0.9999996448589918 0.8201503036367149 0.0019490966136887112 0.00022255367094385902 0.0002225127978908287 0.00022007507816293567 0.00021579094938789696 0.0002100362505483127 0.0002030586846065345 0.00019502772798080426 0.00018607889852122173 0.00017632193539204234 0.00016583516178605675 0.00015460710182686968 0.00014236560517208886 0.00012806394053977436 0.00010951638359259107 8.305819466326403e-05 4.396231684694447e-05 1.0780437754065698e-07 5.934197156345385e-10 3.2241275548927287e-06 7.3470321408352755e-06 7.714930743922066e-06 7.815626210816605e-06 8.365287262800853e-06 1.1045419191437308e-05 1.7988400059357852e-05 2.9342456889536473e-05 4.249567083139885e-05 5.466894717888971e-05 6.47082043674253e-05 7.262610196656989e-05 7.877911606651904e-05 8.350689535324239e-05 8.706587668578704e-05 8.943836942576828e-05 0.00018710909010495917 0.8146743139539405 0.7902675481611491 5.8544282770470044e-05 0.999999481639556 0.8362605557898638 0.836202853158792 0.8360972860214492 0.8359267120033028 0.8356933330800765 0.8353908854992855 0.8350131119355528 0.8345501603581345 0.8339876929909866 0.833304041038744 0.832465352631575 0.8314159456214751 0.8300566689026707 0.8281828790832999 0.8251808171221915 0.817520180710518 0.7792371584777847 0.5773930851909899 0.0012124551591644794 2.477354621362846e-06 2.291230263875903e-08 9.70532191802666e-06 0.00033348737876991006 0.004459506454244966 0.03031422605706393 0.11682510515269788 0.279636649005599 0.4620617240122003 0.5952195779559599 0.6691431023278274 0.7075144418978374 0.7290248353972182 0.7422758017140318 0.7509654386835388 0.7568628669899551 0.7609015543308101 0.7636166874339381 0.7651539377951041 0.7042689699703455 5.854084095779347e-05 0.9999993426458786 0.8851271306417113 0.855403273436539 0.8499294754628166 0.8466545968662764 0.8445332658612769 0.8429375250326416 0.8416270970430655 0.8404621856035444 0.8393544110083663 0.8382354170768088 0.8370402244513252 0.8356912618912257 0.834073316288989 0.8319691241671419 0.8287515207705284 0.820855855796715 0.7821588338490753 0.5790473040972177 0.002044668041873068 5.645860791239493e-06 1.231520366328242e-08 6.05914767346242e-06 0.0002341989882486068 0.0034926132110181243 0.025855492830949026 0.10600539298571224 0.2643549202815839 0.44718873785395397 0.58197760836073 0.6554386055579884 0.6911904024388177 0.7085504054952777 0.7162807549261545 0.7178266180826859 0.7143539473230712 0.7052630531292209 0.6894239629043356 0.649128565377137 0.5173098028063756 5.831691277065547e-05 0.999999196368272 0.9105213267868321 0.8781630997367136 0.8643626866857745 0.8577856192426242 0.8535375344325482 0.8505009108835302 0.8481223748750938 0.8461251065838408 0.8443399910307511 0.8426505169729119 0.8409610292322659 0.8391742637108405 0.8371621221390488 0.8346987713215684 0.8311474923803084 0.8229109234648692 0.7837237704657958 0.5796782001818436 0.0022789295347143547 5.928703729989351e-06 1.2279384388493839e-08 1.4018184234354856e-06 8.281374005984775e-05 0.0017557379311202543 0.016880550312935817 0.08283986022134238 0.23162389043714512 0.41813026760094113 0.5611303618590571 0.6387231924857978 0.6743499843658596 0.6891795079269696 0.6928296692616387 0.6888658874214827 0.6780585398095778 0.6591808738053482 0.6271434857210546 0.5617803242622025 0.41032962460628153 5.786126440858048e-05 0.9999990403987701 0.9284145226353553 0.8949446778243666 0.8781149256801278 0.8685057696535887 0.8623502383915781 0.8579320665879643 0.8545096563777175 0.8516802956999284 0.8492048167074824 0.8469222562293457 0.8447084568128064 0.8424475912223477 0.8399996652150611 0.8371312326726532 0.833197113936491 0.8245651029263358 0.7848335779850176 0.579929462310299 0.002274080457448699 5.946836743631378e-06 1.1928918328014929e-08 7.27245639407524e-08 7.649596789794412e-06 0.0003996693634376883 0.007112773923827424 0.05138959107428639 0.18123048171410494 0.37203687171922994 0.5309124758175214 0.6187138669566928 0.6573658834015402 0.6714603154961603 0.6724433318914995 0.6643893672165807 0.647979965758024 0.6212468977865722 0.577324433905556 0.4983711566246715 0.34177208900500083 5.715464935033997e-05 0.9999988771726881 0.9405309464320167 0.9083851846783627 0.8898837382948257 0.8784353538619166 0.8707148021241741 0.8650939819663468 0.8607153299339901 0.8571022067699223 0.8539617822024007 0.8510975506663633 0.8483610592312468 0.8456200643374727 0.8427240064989664 0.8394326829053241 0.8350929612314705 0.826039566454364 0.7857552616397081 0.5801006493859048 0.0022656521697469512 5.86078988283925e-06 1.59183374879403e-08 3.5961252416192933e-09 5.623045112477769e-07 5.566505296063502e-05 0.0017076600103701233 0.019910302705363276 0.11499919074376706 0.30327480242038474 0.4863922951802272 0.593405415001562 0.6397269195700033 0.6553959996132556 0.6552625574560563 0.6445379326311117 0.6240983803599852 0.5916477480787329 0.5402647954038281 0.4539704872905904 0.2992077059588722 5.6232597236261104e-05 0.9999987080127444 0.9493774835487352 0.9190410414071376 0.9000107946023215 0.8874012414629557 0.8785367480311269 0.8719218191218432 0.8667058156581661 0.8623784774329812 0.8586156899558601 0.8551955272235011 0.8519509358777627 0.8487363101000441 0.8453920811116278 0.8416724558539338 0.8369177859269034 0.8274374078783786 0.7866537505190574 0.5804627842325774 0.002245535317423031 5.758513756069838e-06 0.00020757678600883276 1.4187941202239291e-05 1.5057906417292239e-06 6.348367164964181e-06 0.00035204748832018135 0.006598022829316769 0.057120195733856086 0.20877860488628674 0.4178436807315471 0.5580769400354612 0.619840316752393 0.6404868657286061 0.6411299699462852 0.6292319989814104 0.6063220582056568 0.5702481921985181 0.514379354321164 0.42456068560161525 0.2726502151099941 5.514522010412304e-05 0.9999985340626097 0.9560932944856968 0.9277354625968353 0.9087460426445155 0.8954960724034827 0.8858210831469112 0.8784195409532212 0.8724906670890565 0.8675267353226769 0.8631907584048957 0.8592462581372248 0.8555133004361507 0.8518362827707244 0.8480488345855064 0.8439008388107915 0.8387288454868986 0.8288337466159295 0.7876766827353175 0.5813154538184808 0.0022261799897370983 6.0029577842107224e-06 0.014300952336305 0.010080092160856167 0.002492483159303776 0.000575618317114096 0.00018475471183321404 0.001856178903044292 0.02389763118950835 0.1211079153236139 0.31412096203546735 0.49696423717057797 0.5939686949259526 0.6254434601101084 0.629498895855683 0.6181347264483059 0.5943139049450414 0.5563915838772722 0.4982039724232213 0.4067998872257661 0.25732383043070894 5.395580836107936e-05 0.9999983560520777 0.9614147361408422 0.9350080271086605 0.9164045433008196 0.9028631868988266 0.8926461710487809 0.8846392600037312 0.878116691749977 0.8725935037657134 0.867734952399551 0.8632989516666949 0.8590983368211794 0.8549710139589276 0.8507458211892729 0.8461703273193751 0.840581771888199 0.8303007701580294 0.7889770446544733 0.583000852747522 0.00220901493471113 8.680708142629535e-06 0.10096445154544266 0.08774736710936738 0.058994685444095904 0.024010512609528602 0.008936474878775602 0.0033812137413324504 0.009177465676383896 0.05937336010990465 0.2018232390048624 0.3939597145507095 0.5374812485345831 0.6016343538471992 0.618105587746984 0.6105873459091292 0.5874881789069367 0.5493058225432255 0.4904139081459687 0.398578091840178 0.2504639492799468 5.272882048879147e-05 0.9999981744528073 0.9657939162787709 0.9412673782298183 0.9232566441817734 0.9096739011611921 0.8991246313933109 0.890668148526643 0.8836603557669485 0.8776518392894535 0.872319946714016 0.8674244669228314 0.8627758057369166 0.8582086497222874 0.8535492737645083 0.8485453263362125 0.8425409748286847 0.8319172494235286 0.7907210917366062 0.5859081902381443 0.0021970833431843675 1.6903719254705996e-05 0.29012884665903893 0.2724062990253191 0.23324699566447055 0.17058212196476596 0.09830817355855366 0.04901532284919573 0.02351261608469693 0.03208399092372943 0.1126454094040253 0.27239738083573817 0.44161149781305425 0.5510638196581504 0.5966959218077087 0.6017531668022403 0.5832894770241149 0.5468851792304678 0.4888386595147454 0.3975404664909115 0.24992053347891308 5.152214594016834e-05 0.9999979894939341 0.9695298502923477 0.9468127657150484 0.929534435792462 0.9160974135988207 0.9053865911989898 0.8966154209646414 0.8892220839553239 0.8827984851948001 0.8770410920561118 0.8717170908288557 0.8666385402487231 0.8616394824523929 0.8565459707240706 0.851108239938808 0.8446859795257465 0.8337731910971767 0.7930871999424063 0.590474721397313 0.002192979725183317 2.9963737454601926e-05 0.4876126618943312 0.47241483842156295 0.4429744249313964 0.39504355687852216 0.319548128295158 0.2206979020700768 0.13127624220605671 0.07503215657987242 0.08035943030162035 0.17253414261172273 0.32435549769852995 0.46538945030312817 0.5518403451677881 0.5837212919041492 0.57800142142014 0.5468490031442768 0.4911361858761425 0.40093157636373145 0.2531056215032599 5.0379295114343776e-05 0.9999978011749125 0.972826296064908 0.9518706081977057 0.9354334476657431 0.9222951058073501 0.9115694998858864 0.9026061197023254 0.8949219556745429 0.8881528121132434 0.8820184444860435 0.8762973997231434 0.870806506644096 0.865381399785143 0.8598497981498608 0.8539672224875927 0.8471185453440091 0.8359742404333034 0.7962587457182781 0.5971795322688528 0.002199574616080161 4.362544710181304e-05 0.6112417549701957 0.5979290683423024 0.5785798170367771 0.5515628502624359 0.5119524806092196 0.4459733874019972 0.3402193448401611 0.2275987107527463 0.1493276583592457 0.14669177728742902 0.23125533959924863 0.3614488470003817 0.4773194957678149 0.5454153433817713 0.5645705399955816 0.5461185368502343 0.4960923207781259 0.4081959988323293 0.259782850605286 4.933371711903564e-05 0.999997609201947 0.9758265198126356 0.956612815919201 0.941117520747582 0.9284163455674457 0.9178129609781279 0.9087764118620469 0.9008974533045457 0.8938563078431402 0.887398398265288 0.8813160092280246 0.8754327686768055 0.8695876279574168 0.8636109934808895 0.8572658905853658 0.8499725331448958 0.8386471695034955 0.8004158727513693 0.60654021869667 0.002219445748372991 5.5074464334113356e-05 0.6723199724652347 0.6574993303941291 0.6409929951983009 0.6227727826768639 0.6013873693073832 0.5731098838166713 0.5154891396830462 0.4181239021612568 0.3053763944682409 0.22321988247419375 0.21459264048709506 0.28355881867762645 0.38996461624568585 0.48324447658016895 0.5343200759822392 0.5388273758370455 0.5011533657332047 0.41850604105924427 0.2698250158793247 4.840841083515197e-05 0.9999974117642011 0.9786329232012851 0.9611723333428207 0.9467238587670169 0.9345977614239144 0.9242554490052298 0.9152703637439992 0.9073019627799915 0.9000734073419635 0.8933566111817154 0.8869589177216316 0.8807117337852145 0.874457680518531 0.8680298970073953 0.8611994111543274 0.8534306423161172 0.8419528271968147 0.8057335108446824 0.6190967231493255 0.0022546638633520262 6.390043772932668e-05 0.7033287018980924 0.6846619786010815 0.6666045511252099 0.6496134232162926 0.6334172678291704 0.6168998893995485 0.5948192407165634 0.5451640196377414 0.46056266658241923 0.35978871371520366 0.2851037840698861 0.2738744163050266 0.32783434802820893 0.4127120607357923 0.48543839986128673 0.5183978967252254 0.5018699774447679 0.43022349650184655 0.2830852367920209 4.7616432811780853e-05 0.9999971573760965 0.9813191553969391 0.9656516147362691 0.9523671755092569 0.9409631278111262 0.9310319577903777 0.9222384403318953 0.914303689443325 0.9069919709236149 0.9001014004409232 0.8934542733227612 0.8868895275116955 0.8802522844017628 0.8733766086779117 0.8660395962508509 0.8577524950414012 0.8461140753974079 0.8123805480413047 0.6354494403668385 0.0023074667863004425 7.057809642650555e-05 0.7211173655675726 0.6969460992920279 0.675117980367969 0.656153079008304 0.6400918186947141 0.626548192810694 0.6145293079937708 0.5947362831046105 0.5526102305974068 0.4813827102104093 0.3965562234774212 0.3333750852276285 0.32218091443104824 0.3641322032073924 0.4306881107084045 0.4835845875626258 0.49330097098413656 0.44051447770735036 0.2991702806202169 4.696136306885381e-05 0.9999953127745613 0.9839360673289492 0.9701260532479473 0.9581388307412549 0.9476201195624818 0.9382701563842349 0.9298320921523108 0.9220821023343765 0.9148226650981791 0.9078760877845813 0.9010788493732704 0.8942758307777444 0.8873122667209171 0.8800187742867128 0.8721722414737543 0.8633250854812614 0.8514671028972952 0.8205925112855711 0.6560742289091646 0.002372714616834164 7.560924123835824e-05 0.7322987965518712 0.7008935073205698 0.6736644265070584 0.6509350235375473 0.6327836981775574 0.6189975419401115 0.609024397785288 0.5999765924544059 0.5836058893974057 0.5487816996512682 0.4905560617715656 0.4217523490067742 0.37039128214753786 0.3605787894785755 0.39328795053980486 0.44366553443174683 0.4738644330798964 0.44590988975521245 0.31722087121741027 4.643853611391962e-05 0.9999585644770319 0.9864856339047764 0.9746173201161508 0.9640777904336296 0.9546278816760945 0.946055293455144 0.9381692209818752 0.9307944614309875 0.9237677095298348 0.9169337065583523 0.9101414060701672 0.9032389056122362 0.8960673149531244 0.8884469770264847 0.8801455548202965 0.8707378690831785 0.8585912374661557 0.8306463374210648 0.6823616027793716 0.002464911993916272 7.936075359719921e-05 0.739690713644612 0.6987829092725616 0.6642857616486202 0.6361960212390623 0.6144142575979763 0.5987268754956672 0.5886458968739178 0.5828345098774561 0.5770962724504025 0.5651372222879463 0.5382016518113768 0.4928444451736561 0.43912942062968674 0.3987280550362226 0.3908211279939332 0.41591407103953704 0.4491173406473058 0.444326784565807 0.33580493816979334 4.60364885590216e-05 0.9993650603354916 0.9884660168979974 0.9786360777361046 0.9697095415246332 0.9615351176113355 0.9539716614910987 0.9468845568737817 0.940142471946047 0.9336143850699088 0.9271666444688129 0.920658650384204 0.9139383949196295 0.9068352859096908 0.8991492561231963 0.8906173662404863 0.8808284530296936 0.8684397455804245 0.8436690271968977 0.7122130083865782 0.0024490001632334253 8.188997580854542e-05 0.7446670157449005 0.6904913977181669 0.646319734360833 0.6106544154611456 0.5835293702036634 0.5646781004605769 0.5533273409110637 0.5485280071953756 0.5467237512940264 0.5453687646351194 0.5391681275535962 0.5213836143254654 0.4893089313260502 0.4500707864720898 0.41991099927764464 0.4140457508542355 0.431058592108546 0.43770306240844054 0.35391630141279096 4.574086747749689e-05 0.9924326962585788 0.9841039721973828 0.9764238670212052 0.9693090045453039 0.9626832743872437 0.9564736142309199 0.9506067865833001 0.9450053170187898 0.9395823557249678 0.9342354837661526 0.9288383338844555 0.9232315371432712 0.9172128156797952 0.9105222297865276 0.9028312280785481 0.8936193896670239 0.8819785240059527 0.8606976864372927 0.7625349884404222 0.003078185604172454 0.00017261999049804984 0.7479753071581042 0.6