# vtk DataFile Version 3.0
vtk output
ASCII
DATASET RECTILINEAR_GRID
DIMENSIONS 41 41 1
X_COORDINATES 41 double
0 1 2 3 4 5 6 7 8 9 10 11 12 13 14 15 16 17 18 19 20 21 22 23 24 25 26 27 28 29 30 31 32 33 34 35 36 37 38 39 40 
Y_COORDINATES 41 double
0 1 2 3 4 5 6 7 8 9 10 11 12 13 14 15 16 17 18 19 20 21 22 23 24 25 26 27 28 29 30 31 32 33 34 35 36 37 38 39 40 
Z_COORDINATES 1 double
0
POINT_DATA 1681
FIELD FieldData 1
Concentracao 1 1681 double
1.0 1.0000000000000002 0.9999999999999997 1.0 1.0 1.0 1.0 1.0 0.9999999999999998 0.9999999999999996 0.9999999999999989 0.999999999999999 0.999999999999999 0.9999999999999989 0.999999999999997 0.9999999999989139 0.9999999999163932 0.9999999978170158 0.9999999702954365 0.9999997685790085 0.9999995939223595 0.9999994163667442 0.9999992648496462 0.999999105026708 0.9999989340452408 0.999998754343691 0.9999985670772114 0.9999983731501134 0.9999981729194778 0.9999979662408024 0.9999977509351979 0.999997471564044 0.9999958870724294 0.9999737421522746 0.9997198621338346 0.9975681115080632 0.984114022073164 0.923034120107022 0.7306647236688113 0.3521505270847137 1.2418331279455354e-05 1.0 1.0000000000000002 0.9999999999999996 1.0 0.9999999999999998 0.9999999999999996 0.9999999999999996 0.9999999999999991 0.9999999999999991 0.9999999999999984 0.9999999999999982 0.9999999999999984 0.9999999999999986 0.9999999999999877 0.9999999994154798 0.9999995742894088 0.999960191111693 0.9986845339505107 0.9770950296074514 0.7980427761335004 0.8065789213369499 0.8238393969419975 0.8763409523850912 0.9036157696923933 0.9228218620861414 0.9358209860243151 0.9453141324580662 0.9525309120948193 0.9582664853543109 0.9630103342744042 0.9670867604519322 0.9707163849943183 0.9740520249407623 0.9771818952250755 0.9799646424837329 0.9807655511782957 0.9701909007975444 0.9120436960018656 0.7231417024052579 0.348892619702643 1.2302472875693086e-05 1.0 1.0000000000000002 0.9999999999999997 1.0 1.0 1.0 1.0 0.9999999999999993 0.9999999999999991 0.9999999999999989 0.9999999999999984 0.999999999999998 0.9999999999999976 0.9999999999998495 0.9999999935275379 0.9999966270402234 0.9997528760337486 0.9942907001093201 0.9026574027063554 0.004516378490716687 0.0012556209686150686 0.8237268410637459 0.8443061234497299 0.8687073951936539 0.8866795086066949 0.9010646013243939 0.9124690819039141 0.9217869784640407 0.9296052471102646 0.9363703557806146 0.9424113205392359 0.9479760042687804 0.9532514675550313 0.9583588911418496 0.9631792153767414 0.9660774114131475 0.9576587016800665 0.9019106107529034 0.716236598316816 0.34609616610316585 1.2196228605917228e-05 1.0 1.0000000000000002 0.9999999999999999 1.0 0.9999999999999998 0.9999999999999998 0.9999999999999994 0.999999999999999 0.9999999999999989 0.9999999999999984 0.9999999999999982 0.9999999999999984 0.9999999999999976 0.999999999998859 0.9999999605335692 0.9999846190289725 0.9991642525074087 0.9833766853889484 0.8213822174360859 0.002986137798326021 0.00013899007034284965 0.8234994415850576 0.8383103359373959 0.8537359621782186 0.8684207174380528 0.8809735017115639 0.8917734529924302 0.9011001838455215 0.9093033844116447 0.91668452550842 0.9235046247439622 0.9299837971210928 0.9363042256286481 0.9425945490093124 0.9487420688975905 0.9531021325348724 0.9462953315331712 0.8925922740258194 0.7100866072231196 0.3439378019579334 1.2102853306046194e-05 1.0 1.0 1.0 1.0000000000000004 0.9999999999999999 0.9999999999999996 0.9999999999999997 0.9999999999999994 0.9999999999999993 0.9999999999999992 0.9999999999999989 0.9999999999999987 0.999999999999998 0.9999999999934833 0.9999998210347671 0.9999479368792709 0.997811551292332 0.966475407913349 0.746365889627232 0.002930733907255253 0.0001368843310786203 0.8231427550164097 0.8346116185138938 0.846479504042292 0.857883228503182 0.8684298436164976 0.8779467495011752 0.8865472196814868 0.8943996556659535 0.9017027638134877 0.9086542004390981 0.915442532486795 0.9222399218928559 0.9291778919088902 0.9361480929921463 0.941502283585358 0.9359209504097128 0.8841011372457903 0.7049232342003461 0.3426899693219793 1.2026966442589835e-05 0.9999999999999998 0.9999999999999997 1.0 1.0000000000000002 0.9999999999999998 0.9999999999999993 0.9999999999999992 0.9999999999999991 0.9999999999999991 0.9999999999999986 0.999999999999998 0.9999999999999982 0.9999999999999971 0.9999999999687685 0.9999993205565056 0.9998508011994454 0.9951664884992791 0.9432082917112431 0.6701331973733838 0.002535211100681204 0.00013366427392750153 0.8226554718411643 0.8320865819292986 0.8416583687115107 0.8509952921145212 0.8598343773176353 0.8680892147819645 0.8757806078040505 0.8830094657667213 0.889914833949884 0.896655936980682 0.9034011585826303 0.9103178064263266 0.9175438140809014 0.9249797269243364 0.9309900866853266 0.926390089938683 0.8764980879583529 0.7010719798132438 0.3427225225332795 1.1974495989719376e-05 0.9999999999999999 0.9999999999999999 0.9999999999999997 0.9999999999999998 1.0 0.9999999999999991 0.9999999999999992 0.9999999999999984 0.9999999999999982 0.999999999999998 0.9999999999999979 0.9999999999999977 0.999999999999995 0.999999999865635 0.9999976742529539 0.999613227695262 0.990323039498147 0.9108719923923622 0.5905592859155799 0.002134247915097741 0.00012960185544926928 0.8220206004670267 0.830048075358592 0.838059293602294 0.8458939893600694 0.8534164016319664 0.8605712947830046 0.8673792984245585 0.8739149473177494 0.8802921554417846 0.8866514835010425 0.8931525738711633 0.8999650121327238 0.9072377472700194 0.914887050639594 0.921317500371924 0.917584399332942 0.8698800254149552 0.6989200490858481 0.3444968688870767 1.1952492356606415e-05 0.9999999999999997 0.9999999999999999 0.9999999999999994 0.9999999999999994 1.0 0.9999999999999991 0.999999999999999 0.9999999999999987 0.999999999999998 0.9999999999999976 0.9999999999999981 0.9999999999999972 0.9999999999999598 0.9999999994545138 0.99999245555855 0.9990507818303167 0.9816154155197919 0.8662193895249055 0.5060304724614644 0.001710007324616128 0.00012485172696093328 0.8212157563906407 0.8282219490863232 0.8350693586041136 0.8417625745892259 0.8482318126316922 0.8544547562748873 0.8604582653533095 0.8663118710038699 0.87212029274968 0.8780173617238332 0.8841616008664517 0.8907298808379571 0.8978862527759617 0.9055715833099962 0.9122661552404253 0.9094022876725107 0.8643589951338224 0.6989081189785896 0.3485727909364486 1.1968925459356096e-05 0.9999999999999996 0.9999999999999998 0.9999999999999994 0.9999999999999993 0.9999999999999999 0.9999999999999992 0.9999999999999989 0.9999999999999982 0.9999999999999981 0.9999999999999967 0.999999999999997 0.9999999999999926 0.9999999999968376 0.9999999978067513 0.9999758798219416 0.9977244795943268 0.96607681255711 0.8049238220985725 0.4166043269038277 0.0012942966692239338 0.00011949383802078111 0.8202053799551743 0.8264321446649108 0.8323648800692586 0.8381405076697884 0.8437393278030981 0.8491608916578945 0.8544405162997591 0.8596480740487812 0.8648858259877829 0.8702864632271174 0.8760114019207009 0.8822472217428874 0.8891759470611771 0.8967720928745329 0.903637134798744 0.9017433569371758 0.8600325485790594 0.7014946816060925 0.3556116680499499 1.2032331367436516e-05 0.9999999999999997 0.9999999999999998 0.9999999999999991 0.9999999999999989 0.9999999999999992 0.9999999999999988 0.9999999999999987 0.999999999999998 0.9999999999999974 0.9999999999999959 0.9999999999999948 0.9999999999992514 0.999999999735763 0.9999999303264612 0.9999211237444487 0.9945540178687312 0.9384177578168444 0.7218878773931603 0.32372801294609216 0.0009077688411602071 0.000113543557124181 0.818933973067365 0.8245430501731505 0.8297228051874809 0.8347289334840293 0.8395813973133252 0.8442973724062456 0.8489192737350402 0.8535188157054926 0.8581980987228373 0.8630905405034375 0.8683616966552219 0.8742081014245289 0.8808312746082448 0.8882500940822647 0.8952375187292932 0.8944870852151574 0.856941201420677 0.7070981557258961 0.366376391757542 1.2151210263399525e-05 0.9999999999999998 0.9999999999999993 0.9999999999999991 0.9999999999999988 0.9999999999999987 0.9999999999999987 0.9999999999999982 0.9999999999999974 0.9999999999999966 0.9999999999999927 0.999999999999425 0.9999999998859438 0.9999999827004509 0.9999980936273384 0.9997220016682709 0.9867618443968532 0.8893961699405941 0.6122196857375747 0.23109366659821484 0.0005730282472335887 0.00010695332987900796 0.8173104550788476 0.8224126944707486 0.8269489391811221 0.8312851538880673 0.8354761422070642 0.8395543054295975 0.8435683269959526 0.8475921260196211 0.8517279946883635 0.8561102773946411 0.8609083762455711 0.8663280886380993 0.8725907575402972 0.8797701654055005 0.8868614974690404 0.8874631085851589 0.8550088781014682 0.7160167483691038 0.3817253379397372 1.2333092558818485e-05 0.9999999999999998 0.9999999999999992 0.9999999999999989 0.9999999999999988 0.9999999999999981 0.9999999999999984 0.9999999999999976 0.9999999999999957 0.9999999999999843 0.9999999999983872 0.9999999998309914 0.9999999861149649 0.9999991190804364 0.9999589211545357 0.9987202400870725 0.9667990747635833 0.8037548276308261 0.4740929629034514 0.14509374516160717 0.00031068643180061747 9.958722212624904e-05 0.8151727820706623 0.8198445382319618 0.8238128873797111 0.827546870014004 0.8311337371915434 0.8346201418397038 0.8380609641396968 0.8415325688311043 0.8451380113168332 0.8490123647881196 0.8533279232726912 0.8582982227259702 0.8641642934479864 0.8710634582472236 0.8782569313527738 0.8804121607328025 0.8539736999578327 0.7283281021717143 0.4025787540717464 1.2583079185664036e-05 0.9999999999999994 0.9999999999999989 0.9999999999999986 0.9999999999999978 0.9999999999999921 0.9999999999999709 0.9999999999998876 0.9999999999993922 0.9999999999823197 0.9999999991019244 0.9999999621351968 0.9999987320047974 0.9999663021645141 0.9993209356556807 0.9906046229645323 0.913110225680395 0.6602232766577116 0.31486417816228346 0.07447705199762356 0.00013408250950144334 9.117756945556792e-05 0.8121775237239897 0.8164687152916442 0.8199196216088447 0.823094072862067 0.8261104589612777 0.8290298401183526 0.8319147148547303 0.834845370165631 0.837927400932132 0.8412981470555376 0.8451333086342062 0.8496532709676093 0.8551174519780923 0.8617307386695618 0.8690460951582305 0.8729191947363374 0.853311876088653 0.7437084986273231 0.4298911825598571 1.2901963362382641e-05 0.9999999999999994 0.9999999999979223 0.9999999999764962 0.9999999998536758 0.99999999932327 0.999999997384054 0.9999999908850958 0.9999999698059296 0.9999998998646342 0.9999996259036927 0.9999942490867513 0.9999215484509248 0.9991070885185803 0.9919237928750307 0.9469351105065045 0.7745913385678338 0.44598465511733054 0.15998380631827025 0.027590815986723635 4.0778906668075255e-05 8.125526836366318e-05 0.8072755214241434 0.811206407418504 0.8141580356711497 0.8167782163018985 0.8192169778284046 0.8215532919188867 0.8238629227127804 0.8262379169233021 0.8287955339324038 0.8316842946146881 0.8350901259994351 0.8392422890518538 0.8444146582415424 0.8508699044947061 0.858445274560394 0.8642176343224951 0.8520745390090856 0.7613736811575273 0.464219443346884 1.3282745718010936e-05 0.9999999999999549 0.9999999827780198 0.9999998590610063 0.9999993374445043 0.9999976929703166 0.9999931919010114 0.999981777489532 0.9999535666314208 0.9998832336176957 0.999700962426607 0.9991843735478982 0.9971735031708756 0.9856964193076411 0.9379677593752349 0.7916753520764079 0.5041093585878663 0.20799299600933538 0.05206115175333783 0.0061717215522292 7.513447919564157e-06 6.906145108999056e-05 0.7958778623064121 0.799401229778768 0.8017883484577143 0.8037597692069759 0.8055055245672503 0.8071407444502614 0.8087800471591985 0.8105590436104703 0.8126423781044831 0.8152248622416925 0.8185297534535675 0.822806457093044 0.8283281840422634 0.8353710121244554 0.8439729220546205 0.8523358897317803 0.8484354897380448 0.7791626921257369 0.5065628628205453 1.3710435672346862e-05 0.9999999999874947 0.9999939361634749 0.9999611715392093 0.9998651415414165 0.9996363648773765 0.9991710463630171 0.9982777311330948 0.9965751836512782 0.9933031397684434 0.986881864903867 0.9738654348969585 0.9461790470681335 0.8830392062889011 0.7270164257793039 0.4757882841859153 0.21007788344429973 0.054821537967902935 0.008863730218102592 0.0006840058361049818 7.08886391030779e-07 5.3551053355779975e-05 0.7579627846244091 0.7608594335764485 0.7624343433437822 0.7634674470060834 0.764227172807298 0.7649232449558141 0.7657873505340106 0.7670907344630858 0.7691469443934379 0.7722975591632352 0.7768912808517682 0.7832550989672095 0.7916709007211823 0.8023386215173015 0.8153306902481234 0.829596752115172 0.8369806351154476 0.7940565334659389 0.5527255034082462 1.4150616682341489e-05 0.999999999282454 0.9995530902710825 0.9980118592759023 0.9940318620009226 0.9876534822352009 0.9784791009560746 0.9650353359655932 0.9452206226757274 0.9157182062541488 0.8713858633242565 0.8043274393822444 0.7029948927809353 0.5529660101661589 0.3480702770577173 0.15817545578463052 0.045147112863734795 0.006799042185381904 0.0006770530643893628 3.3298832385125784e-05 2.966411723765198e-08 3.4107261749031735e-05 0.6321810401089747 0.6339978703219885 0.6344239511256502 0.634235691823088 0.6338265885369365 0.6335772453133659 0.633942065637897 0.6354461326346467 0.6386958618280449 0.6443536303313532 0.6531031835003545 0.6656131000489268 0.6824405897965846 0.7040777835677101 0.7304388310526025 0.7620452008548216 0.7929929199185525 0.7897162091638282 0.606656982013304 1.4570096535005407e-05 0.9999999827436477 0.9860836207286215 0.9391561862953091 0.8868220258023108 0.8364866720379942 0.78285170788585 0.7236386652530935 0.656409459701208 0.5792684957434251 0.49065645549304715 0.39025017217362673 0.2804660048779068 0.16931035125094304 0.0742657006522168 0.020253453748290323 0.0037000734502081224 0.00035199918937586636 2.2392448984425778e-05 7.454716330055649e-07 1.2242603068828975e-09 1.3344003606426306e-05 0.33795173124876793 0.3383707932032303 0.33795069301298825 0.3371431645186347 0.3363052677690985 0.33584530061376716 0.3362581657752785 0.33813808504382825 0.34219288437525863 0.3492629809718696 0.3603506747939961 0.37664600942753856 0.3996311434389122 0.43084659151415206 0.4735535483066694 0.5249351264090925 0.614064144491951 0.6757912443204224 0.6176423492311596 1.4894444273371594e-05 0.9999997912663925 0.806276474955078 0.004900731876566376 0.003408365085052429 0.0035064301677643316 0.003188029672125443 0.002835288159870341 0.002419578343399043 0.001972579529625951 0.0015127978873439875 0.0010644868368830504 0.000657965079616831 0.00033053264821839137 0.00011850597903092204 2.6883905751404346e-05 4.198427673964159e-06 3.517446996189996e-07 1.977066358782312e-08 1.0960857588417774e-09 2.5841204276463805e-12 1.8601571956970067e-08 0.00036793069366444385 0.0006186274339084199 0.0006859653580377605 0.0006796873470501262 0.000671787283381465 0.0006605674106405612 0.0006505712609218743 0.000643104210792521 0.0006400585368484404 0.0006433389719926659 0.0006551296776068776 0.0006777735647767335 0.0007139664080872593 0.0007645370776456643 0.0008379664059517535 0.0008817116050850324 0.0011991599484577722 0.6736980308667645 0.6273964646183533 1.5172068825246153e-05 0.999999625368177 0.8145003921678347 0.0013155749977131186 0.00014478211292558605 0.0001430684562267572 0.00014007634225116178 0.00013609069343621663 0.00013128825989401537 0.00012577587372867574 0.000119608200395996 0.00011279886598792692 0.0001053068240578218 9.700424640051998e-05 8.76135222701221e-05 7.660746105696272e-05 6.31989250738088e-05 4.6647014588499126e-05 2.7415942058448087e-05 9.502888915395546e-06 1.2393270825635948e-08 4.191382617648978e-11 4.2765454030946497e-07 9.69829638434811e-07 1.0101041525645654e-06 1.0023040873771643e-06 9.818734725992934e-07 1.0099245629068733e-06 1.2837360284252086e-06 2.2598259051021664e-06 4.4676699301615084e-06 8.005931862445586e-06 1.2357458025860717e-05 1.6795594003219023e-05 2.081622279653948e-05 2.421241229973419e-05 2.6957829174228603e-05 2.9045197696811006e-05 6.574339857955091e-05 0.6711708728812021 0.6001237532547692 1.5396935563387814e-05 0.9999994567221504 0.8310820168230224 0.8309807393720122 0.8307921613594416 0.8304944652303509 0.8300871854659126 0.8295565597518364 0.8288852334864606 0.8280460941093504 0.8269978744536414 0.8256750025440077 0.8239666255963437 0.8216603895559941 0.818216588575845 0.8116123021536826 0.7931842656025321 0.732840959191351 0.566680431716167 0.2643177416100355 0.00026200804173301184 2.8485521794636316e-07 1.6107639029717904e-09 2.6857130177051682e-08 1.7123665368791578e-06 4.549273156459863e-05 0.0006293953383536754 0.004998630336364826 0.024343639641965887 0.07735546941211557 0.17162436489850236 0.28686934265562164 0.3913264664808105 0.46861392721393724 0.5203576394942152 0.5542840056903245 0.5768411466248131 0.5919960042132958 0.6020561105572099 0.6080260573840394 0.5323474250362884 1.5579124496162722e-05 0.9999993129093124 0.8814624641740175 0.8507482447286321 0.8450252127706659 0.8415270881122496 0.8391739575584986 0.8373098402071809 0.8356760199019616 0.8341111787711801 0.8324975267578432 0.8307210276172673 0.8286381414592381 0.8260123324388128 0.8222809995362031 0.8153803741709326 0.7965393781848156 0.7354515069508882 0.5680984678714317 0.2645144965063643 0.00044028209832767365 6.45659217508031e-07 7.768779341354447e-10 1.4287440823604893e-08 1.0708519418464625e-06 3.19260760029335e-05 0.00048486858145753225 0.004140281372905774 0.021288056801179272 0.07033605260164849 0.16021152319365498 0.2720529637620403 0.37382102302272163 0.44795129418725543 0.4952656582114379 0.5230735832186848 0.5373499276103539 0.5407468713917648 0.5342680133946711 0.5026429451810234 0.38927317602929296 1.562873177555248e-05 0.9999991612976714 0.9076281188960855 0.8741807372271052 0.8598587436116145 0.8529536732440892 0.8484060671116186 0.845055585096864 0.842319481015413 0.8398949180449483 0.8375804630145334 0.8352119738040605 0.8326133949219828 0.8295254753286536 0.8253623741662727 0.8180102564412565 0.7985673060828987 0.7365420163139893 0.5680413493077934 0.26395544835649903 0.000487963080915457 6.724272215249451e-07 7.815055498687493e-10 2.387691558269151e-09 2.8126501865045096e-07 1.2240722236890463e-05 0.00024861614710044294 0.002626227886614113 0.015706372129369026 0.05759935274478408 0.1405806649143819 0.24911593283879252 0.3503883895024057 0.42409728458225954 0.46949633403725377 0.4935942730303253 0.5021975735291959 0.4977996371981163 0.47807089959841326 0.42782839402731176 0.30637773213415775 1.5569660280002836e-05 0.9999989992457212 0.9260565069407484 0.8914416396668317 0.8739802503085679 0.8639384574067722 0.857418336754688 0.8526387419456953 0.8488221461144997 0.8455351288782683 0.8425035473674856 0.8395168053476549 0.8363683508493044 0.8327765301836728 0.8281295052468198 0.820250597627094 0.8000831785886894 0.736961967449738 0.5672925482428129 0.26301769166070427 0.0004833419953788079 6.67331062765807e-07 7.497478222482303e-10 7.056673817618122e-11 1.4212563811146037e-08 1.6757782646792686e-06 6.833075954828206e-05 0.0011406739446413797 0.009212319861150222 0.04113786093778414 0.11396675986187536 0.2183141001443824 0.32092113921774235 0.3970169794019516 0.44311370111185244 0.4657510889194796 0.4709745857034191 0.46102431063578037 0.43274453891917974 0.3735056839956107 0.2525485222460411 1.5396326742013264e-05 0.9999988291132113 0.9385239920611894 0.9052511255916068 0.886046558875814 0.8740936047842817 0.865948605869119 0.8599199290702855 0.8551090739049106 0.8510056254158328 0.8472794427586823 0.843682574402385 0.8399821260115624 0.8358754624673197 0.8307225919443822 0.8222742673128373 0.8013068435243046 0.7370215015092965 0.566244462911925 0.2619940542925795 0.0004775771225007078 6.496601142818439e-07 7.41271900821936e-10 2.1887281174326982e-11 5.861627350853596e-10 1.2937974378658728e-07 8.994496304737701e-06 0.0002417599282681622 0.0036924981591668037 0.023811130998740358 0.08225484556665287 0.17970538089049548 0.2846010598876949 0.365973171763677 0.4156663658969897 0.43927834056262477 0.44327443770963376 0.43022942747367415 0.3974388597155173 0.3344283030167639 0.2180978672544343 1.5122817891594622e-05 0.999998652066461 0.9476163186925189 0.9161824710401004 0.8964099378961022 0.8832408136622153 0.873900608568356 0.8668332922274269 0.861146497332293 0.8562943071133975 0.8519136645074986 0.8477296664011094 0.8434888642592852 0.8388702053146119 0.8332044297540108 0.824165462542575 0.8023732120458734 0.7369691526213636 0.5652992592136218 0.2612195794201844 0.00046945892191032154 6.29776478912688e-07 1.976750041697113e-06 6.966221556675418e-08 4.142850752633431e-09 8.61282249119178e-09 1.0821365418038661e-06 4.714037354569729e-05 0.001087360837739626 0.009973121549066098 0.04890421829719055 0.1339636578766779 0.2401779405309575 0.32952534679521456 0.3861694324990004 0.4135368064854383 0.41862993962339384 0.40485857625695143 0.3703915204938544 0.3067215372695741 0.19539940519228313 1.477099534055987e-05 0.9999984690373886 0.9545079671637348 0.9250843167907926 0.9053275340340479 0.8914752157765703 0.8812793001696911 0.8733829336941173 0.8669443367004211 0.8614195307172612 0.8564316154031363 0.8516900682930826 0.8469268589714974 0.8418056568154095 0.8356290683853217 0.8259980344678441 0.8034146797590158 0.7370830007611584 0.5649245769892952 0.2610983669847266 0.0004621962670061695 6.134725522727549e-07 0.0002911810113522303 0.00017888773061505486 2.484684620078221e-05 3.2659420872912813e-06 5.497404038319369e-07 8.197999295837108e-06 0.000287940168295367 0.0037311005887028796 0.024605966462742573 0.08632774248351707 0.18651544938708808 0.2854849783537226 0.35292474909246413 0.38742553759297826 0.39622675493710424 0.3839795283094033 0.35002372204432486 0.28741330276188426 0.1807038131659132 1.4367826645619611e-05 0.9999982804484807 0.9599581124953698 0.9325125193048426 0.9131234103438236 0.8989436270568235 0.888164515466619 0.87962168477611 0.8725500958942647 0.8664287540425748 0.8608827273598041 0.8556153657322433 0.8503501683849379 0.8447393734491411 0.8380604590731856 0.8278567205548204 0.8045862476992646 0.7376916025049569 0.5656668719564875 0.26211347765720866 0.00045672431086807514 6.526134965543115e-07 0.004493913820998673 0.0035023302067892486 0.0017753177098459643 0.000396206728009781 8.944497270670794e-05 2.050767031541943e-05 7.03748433500761e-05 0.0012345035939159232 0.010917859699666292 0.04904086025774817 0.12954365806497836 0.2301907671754508 0.3120529858896583 0.3591971407037283 0.3748687461425679 0.3665096363858235 0.33494362721471543 0.27457483388285797 0.17177806180232602 1.3939889213696718e-05 0.9999980863234412 0.9644326557625708 0.93888775804708 0.920075199313385 0.9058212348764412 0.8946707085301507 0.885637694097126 0.8780409585281923 0.871395948830883 0.8653401816881368 0.8595790313568744 0.8538330430826385 0.8477472408939873 0.8405805010345577 0.8298472680020503 0.8060736405765903 0.7391736246136553 0.5681602438040185 0.26484114657211016 0.0004543977665120447 1.008926746779233e-06 0.0277491625972865 0.023917594447919778 0.01677946520390246 0.008537098445082977 0.0029675365159743936 0.0009662366898123733 0.0003018077311540663 0.00043297013565585 0.004278073616970924 0.024585601473231203 0.08006728545548417 0.16859423304765614 0.2585373632204972 0.32155608939105307 0.3501250831323698 0.3496665894782305 0.3229619551609868 0.2661590439606527 0.1669028914565671 1.3509663407729029e-05 0.9999978857664157 0.9682395101409396 0.9445176279329162 0.9264206577332434 0.9122804106894297 0.9009295533453011 0.8915408143746717 0.8835176655258685 0.8764182923980204 0.8699003734668816 0.8636776113003526 0.8574726853103811 0.8509278470199976 0.8432939636508474 0.8320999788815501 0.8080910720682059 0.7419455765760805 0.5731196890713187 0.2699741893618523 0.00045660495398788364 2.25666258631797e-06 0.09232225059975044 0.0839594092549224 0.06861299223532712 0.04833058397890761 0.026371853744912518 0.012089643853820173 0.005008984432048066 0.001953516683693062 0.002073687076288123 0.011049797850085164 0.04402397243662993 0.11121154986113306 0.19737870827327098 0.27285575890783026 0.3179533505081994 0.3300813476140737 0.3114210401539806 0.259791961239044 0.16418015144245618 1.3092248166448153e-05 0.9999976587440423 0.971588128318682 0.9496341760595324 0.9323591402925164 0.918484476396644 0.9070789635129693 0.8974555858565831 0.8890992974582022 0.8816141188375836 0.8746827618776067 0.8680321611382643 0.8613915938255674 0.8544058616923754 0.8463324304465899 0.8347720264473192 0.8108734773450301 0.7464394230432346 0.5813175658634206 0.27835033796134284 0.0004649881946266124 4.851933621022336e-06 0.1970699630199012 0.18453204520356772 0.16336689573712151 0.13435046196838932 0.0986634289653535 0.06061718518411553 0.033071790381197994 0.016118049592129285 0.007434575007828947 0.00694799302229219 0.022390237680797648 0.06607806106372831 0.1374368301193293 0.215982876014513 0.2763353434882912 0.30491531667324795 0.2984836531883795 0.25458681419567436 0.1632695318789 1.2699290817169162e-05 0.9999969318779395 0.9746247110155297 0.9544118867579637 0.9380554441535275 0.9245818940912242 0.9132559221400188 0.9035141272366316 0.8949181528169586 0.8871189400419109 0.8798274163292525 0.8727872335370707 0.865738116758986 0.8583337662046038 0.8498563072314893 0.8380451080198719 0.8146610476504078 0.7530607747631576 0.5935480502849318 0.29100162068253144 0.0004814373342921273 8.55888245652892e-06 0.30949226293201676 0.29391250562467236 0.27112781230854655 0.24111886805781485 0.2033271994037629 0.15720520134916463 0.10791507326003152 0.06595618402326564 0.03609836808736058 0.01901016963383348 0.016950627937260085 0.037827019233127035 0.08761473126944805 0.15787274361782766 0.22649544628604615 0.2719501303853064 0.2818139052386077 0.24931989639975222 0.16383551062949228 1.233906039473654e-05 0.9999879848207665 0.9774449740153938 0.9589753737054536 0.943635568874626 0.9306946814142897 0.9195806553811392 0.909838497389527 0.901101911851803 0.8930680194745835 0.8854779783970058 0.8780951537691323 0.8706734430176022 0.8628822424912059 0.8540484938277926 0.8421184947631232 0.8196795515263585 0.7621409791003394 0.610586665071092 0.30920305453242536 0.0005081574698472367 1.2636671946882073e-05 0.40010748101685845 0.38148675740390586 0.35848740776753224 0.3310198392248238 0.2982357190653612 0.2585743644283456 0.20960195103130905 0.15390462021735332 0.1017937058323504 0.06094163474859114 0.03588533877447262 0.03196759103930539 0.0558308293626521 0.1075435830699065 0.1735162274779355 0.23112569475852152 0.2591739840960556 0.24233901956391204 0.16543608126829554 1.201664692868761e-05 0.9998830604989208 0.9800314212382751 0.9633292880284281 0.9491074424412557 0.9368291805826008 0.926058958733749 0.9164378741903509 0.9076660700093563 0.899487249319121 0.8916754213076988 0.8840171150268603 0.8762847521445155 0.8681699841907004 0.859062369905946 0.847173066838407 0.8261058948060115 0.7738831671921444 0.6330793776698801 0.33461499561990243 0.000548010731489997 1.644460787148687e-05 0.4625094203288884 0.4397042303488693 0.41534437949596736 0.38946803969749144 0.3614949689030919 0.3302050973822318 0.2935507479641175 0.24536774882675472 0.18893539902915116 0.13278627458596148 0.0857039706736951 0.055544584875361784 0.050201166593037666 0.07503692270254592 0.12590314849245035 0.18574600273527572 0.2294978070926868 0.23171415893465175 0.16740180884490435 1.1734075290396234e-05 0.9989677984714104 0.9817072826406915 0.9667991411373511 0.9537846332915894 0.9422840784295516 0.9319784146895784 0.9225971168941169 0.9139072272044457 0.9057045723505701 0.8978027593547373 0.890018756045592 0.882147983112281 0.8739067902853647 0.8647521451217018 0.8531862325385393 0.8339587499619938 0.7882519331755937 0.6615650482051697 0.36906148710981246 0.0006022881893591693 1.9683668021591576e-05 0.5032919053502845 0.4745895132019736 0.4470095009889264 0.42046987249566053 0.39462752466450357 0.3686730304659784 0.3412363467267258 0.3076824462912302 0.2635245642141552 0.21084887684736403 0.15597205015372087 0.1076199670143814 0.07568585586456063 0.0697827019790493 0.094559856112784 0.14313702877076162 0.19427015262866615 0.2157839764371365 0.1687545568125959 1.1490829704623749e-05 0.9930422324368309 0.9782761952964171 0.9651642983603838 0.9534147302444271 0.9427833517052272 0.9330648295000432 0.9240869641431593 0.9157027067291982 0.9077822596092943 0.9002003869682355 0.8928179202559748 0.885453427285037 0.8778317354016756 0.869444753724037 0.8590444630098614 0.8425280950412963 0.8047288621650904 0.6957036460816649 0.41632368214250565 0.0006789467560125679 2.2295864683591797e-05 0.5300264230164788 0.49326455328208146 0.46043786688882915 0.4311692330382977 0.40498142262476705 0.3812881314520514 0.35910828178002074 0.33613752598613006 0.3068182329152062 0.2688027793108867 0.22258121634709818 0.1724917191674619 0.1265000761652367 0.0953214917875849 0.0896711228385397 0.11412305592580506 0.15896378177488665 0.1942615117082984 0.16822503774149689 1.1284663548265661e-05 0.9645878218774424 0.9522422770209615 0.9409554899138705 0.9305849502858121 0.9210329133958814 0.9122424275052239 0.9041870671245095 0.8968650845347769 0.8902813183225154 0.8844234548883003 0.8792283349898654 0.8745384960815188 0.8700441719160876 0.8651748313552526 0.8587654522470382 0.847646079092837 0.8204554801223013 0.7353577033420546 0.4735939833921722 0.0007330505044856392 2.427810574161918e-05 0.5477294223429134 0.49951870820162736 0.4593951114456429 0.4252231136950353 0.39670007101593263 0.3731519953265803 0.3535576521699267 0.3366666052082825 0.31792300662461376 0.294668075365951 0.26447402251095736 0.22671562266781653 0.18397915142607368 0.1429601203126819 0.1142920409800121 0.10956859141422026 0.1334896676423171 0.1700783568389763 0.1647542029890148 1.111359704742318e-05 0.8651395683431843 0.8553848828417633 0.8462798909278932 0.8378368486266444 0.8301462314651664 0.8233635961320372 0.8176911813694867 0.8133720952200254 0.8106534235216614 0.809