# vtk DataFile Version 3.0
vtk output
ASCII
DATASET RECTILINEAR_GRID
DIMENSIONS 41 41 1
X_COORDINATES 41 double
0 1 2 3 4 5 6 7 8 9 10 11 12 13 14 15 16 17 18 19 20 21 22 23 24 25 26 27 28 29 30 31 32 33 34 35 36 37 38 39 40 
Y_COORDINATES 41 double
0 1 2 3 4 5 6 7 8 9 10 11 12 13 14 15 16 17 18 19 20 21 22 23 24 25 26 27 28 29 30 31 32 33 34 35 36 37 38 39 40 
Z_COORDINATES 1 double
0
POINT_DATA 1681
FIELD FieldData 1
Concentracao 1 1681 double
1.0 1.0000251022637638 0.9999676755610101 1.0000195332871316 0.9999914635785208 0.9998893838870192 0.9975491979063221 0.9806888463156767 0.9208823697163295 0.7944099639696273 0.6138048807943064 0.42336337277097036 0.26445751472702345 0.15345718622402504 0.08537630022453571 0.047179704902391706 0.02683772893365234 0.016324136396578755 0.010737691568235768 0.007375903958033987 0.005160395072777651 0.0034420512643452907 0.0021086148856496374 0.0011131485137499822 0.0004950868764051583 0.0001872347899022297 6.065973175951033e-05 1.6991309236284827e-05 4.145944182344419e-06 8.859256771426084e-07 1.6620132705662144e-07 2.735345916871945e-08 3.931209798099254e-09 4.887802613738458e-10 5.1765085018155715e-11 4.557873781950582e-12 3.2120541055082217e-13 1.7018895461923937e-14 6.033143487033075e-16 1.0739506632946086e-17 1.2246873819782891e-23 0.9999795780824431 0.9999838432837185 0.9999334252538038 1.0000173147591742 0.9999919244540885 0.9998487291155819 0.9969427404561239 0.9771496704065376 0.9099335690117942 0.7730011365937217 0.584116613338274 0.3915125529128925 0.23600424463052988 0.13090439351154348 0.06875697523490017 0.035227367272326046 0.018109468904061427 0.009482017249620212 0.005233848896465951 0.0032708624423778295 0.0026605162702521092 0.0020366936548449777 0.0013860945569249311 0.0007285901794744097 0.0003217588713122011 0.00012005215514790935 3.827947413702182e-05 1.0539840161560345e-05 2.5269493887305912e-06 5.30634206865195e-07 9.787349530250125e-08 1.584819223664069e-08 2.242862359268825e-09 2.748601795580749e-10 2.8718935609227734e-11 2.4970272292433585e-12 1.7392415008485453e-13 9.114719214272044e-15 3.197787955679268e-16 5.635604790793303e-18 6.35686341150772e-24 1.0000263725427267 1.0000262076954212 1.0000158509366437 1.0000358776669411 0.9999899074534788 0.9996961094129613 0.9950821815240358 0.9677237400603219 0.8838298535180561 0.7265494565176036 0.5247890457079233 0.33245341515581617 0.18705558091364724 0.09537777158516264 0.04516706872140883 0.020307523936820313 0.008791861483348212 0.0037081251772278306 0.0013483922176175513 1.0965792700720985e-07 4.401820695520543e-08 0.0014625340187657827 0.0008863716859515289 0.00044417528961207585 0.00018629310988047646 6.626928278004875e-05 2.0234852964979734e-05 5.356522767933084e-06 1.2395330284219885e-06 2.521766028209942e-07 4.523150409175567e-08 7.148331473074537e-09 9.90882005071812e-10 1.193469639089281e-10 1.2295454373339785e-11 1.0571366251149336e-12 7.299652492617911e-14 3.8001679311048186e-15 1.3264465909139762e-16 2.327936548387782e-18 2.606290214908414e-24 0.9999839780088057 0.9999849864430909 0.9999872783973529 0.9999931223551549 0.9999608449148488 0.9990464234041831 0.9896352940561374 0.9458742030539163 0.8328330758086386 0.6475477045810055 0.43547260917830427 0.2531553838956394 0.12855631925054536 0.058157948470216665 0.02391615295528851 0.009061558561733242 0.003150484681155672 0.0009855386148942182 0.0001991759898158273 1.1608967135813416e-08 1.0635632965208997e-09 0.0007938398273101014 0.0004808260449373642 0.00022434564271729256 8.855072866242597e-05 2.9746962681169135e-05 8.624400637442978e-06 2.180161751688493e-06 4.845560422614651e-07 9.523219448021039e-08 1.659631737501383e-08 2.562892750202371e-09 3.490459875747226e-10 4.1519236326877035e-11 4.2445708101082045e-12 3.636617774257023e-13 2.5110811064554453e-14 1.310820942020695e-15 4.596323108666067e-17 8.110963477379634e-19 9.061851206657996e-25 1.000004565035261 1.0000029792435083 0.9999968212652199 0.9999587331938717 0.999560312463065 0.9956503383691987 0.9728917247328452 0.8973615317070602 0.7429649384181536 0.5316839585500553 0.3237851467575302 0.16786073359094247 0.07451067198537448 0.02902570243801138 0.010078671249314655 0.003127321031391087 0.0008516721331531791 0.00018476204584100825 2.448715147997244e-05 1.57308220136039e-09 4.3007563379407564e-10 0.0003432149383916644 0.00020404554125029586 9.236277373352601e-05 3.442653302510271e-05 1.094123583741944e-05 3.0103615687792563e-06 7.263019674376967e-07 1.5507399213969807e-07 2.948432776229566e-08 5.006777755476729e-09 7.588389245349491e-10 1.0214425511846531e-10 1.2088312596879171e-11 1.2369215719500464e-12 1.06627282031068e-13 7.439182190450817e-15 3.9360111893164215e-16 1.401521138668444e-17 2.5132368266408197e-19 2.8135985739665497e-25 0.9997946081783913 0.999733144242843 0.9995165480933519 0.9987128803498108 0.9951314410576119 0.979218973892274 0.9252657398780259 0.8007955009035891 0.6053440252762886 0.387972258061584 0.20863958014605283 0.09416312588131219 0.03567745593266345 0.011682284556076512 0.003355517994239286 0.0008398587812877149 0.00017632089482635968 2.8089179575858735e-05 2.531016761890565e-06 1.592413827566688e-10 1.432122898612408e-10 0.00012238130637178034 7.129253886404248e-05 3.1220106057905564e-05 1.1136558762380857e-05 3.3649189060266755e-06 8.819433090699365e-07 2.0366947743757416e-07 4.190621787454032e-08 7.738136559398233e-09 1.2868331786235817e-09 1.9262425471264377e-10 2.5821293247988955e-11 3.0672328406541173e-12 3.1725730333111253e-13 2.781422089918759e-14 1.9831592650676703e-15 1.075954598915745e-16 3.936191676018186e-18 7.253959353863e-20 8.15384830109129e-26 0.9962990152031757 0.9955593602739929 0.9933181589100086 0.9872116552639276 0.9698786578831112 0.9228603531832144 0.8181462496823525 0.644002401256441 0.432716887529038 0.2429196253600567 0.11313893991985996 0.04365993545799379 0.013895082351559325 0.0037432134330617124 0.000876095663652586 0.00017512034837120625 2.8542701781321198e-05 3.3947414500656278e-06 2.201320932557701e-07 1.3601602017277523e-11 4.002815578087491e-11 3.660045013989416e-05 2.0847851100542164e-05 8.862561212971612e-06 3.041023813146895e-06 8.802658210323144e-07 2.2111440656797225e-07 4.9150527616582856e-08 9.800065204618996e-09 1.768228560269431e-09 2.8996985938376774e-10 4.321243533096014e-11 5.8217498615582135e-12 7.01278750876931e-13 7.415432795059578e-14 6.691847269716657e-15 4.937459844792066e-16 2.782212104572832e-17 1.0590313188239542e-18 2.0306627461718362e-20 2.2914807981431885e-26 0.9743120236243675 0.9707311016551123 0.9607539728048868 0.9382174176812264 0.8898264557017521 0.7952266488497072 0.6416607235378918 0.44790365010690014 0.26238928579057313 0.12703591919614965 0.050546041732993825 0.01647015132271715 0.004356714546265631 0.000945009115874561 0.00017787351309717154 2.8218044152438975e-05 3.577941130675801e-06 3.232791166422397e-07 1.550143520572299e-08 9.330476371151918e-13 9.52355277509888e-12 9.29961724046697e-06 5.1778841861356515e-06 2.140094839551454e-06 7.102824951251278e-07 1.983175363648503e-07 4.809826485756429e-08 1.0367160378143815e-08 2.018224762904952e-09 3.586568276674676e-10 5.850642901809442e-11 8.76441426973613e-12 1.1995112992879364e-12 1.4826292869287203e-13 1.6232872058530094e-14 1.5283772455157583e-15 1.1834962618942703e-16 7.026215614789719e-18 2.822924470029396e-19 5.712235814020226e-21 6.456949198550697e-27 0.904337673580665 0.8948601467862325 0.8697109357385744 0.8200824157828365 0.7329032422909388 0.5992048984929423 0.430223155760234 0.2618648381851502 0.13206048400920678 0.05455196285031604 0.018358265476225606 0.00500383115103091 0.0010915717379806277 0.00018653200352342124 2.784104053953184e-05 3.4779829823736126e-06 3.429839688715472e-07 2.37230227632381e-08 8.569354914943404e-10 5.0196585467747456e-14 1.944392005661691e-12 2.0226926862679623e-06 1.101298373825001e-06 4.436120122333455e-07 1.4309065187800171e-07 3.88001660925342e-08 9.156787030079505e-09 1.929822774205648e-09 3.7005027381694014e-10 6.538111361135525e-11 1.0717850233138716e-11 1.6320678309674692e-12 2.2971329223728297e-13 2.9527420688012175e-14 3.3961445434849086e-15 3.3877248271022944e-16 2.797456705548755e-17 1.7787545414733148e-18 7.670229515459565e-20 1.6657279270576051e-21 1.8789499475894453e-27 0.7684565361931308 0.7521178821642303 0.7099850240127641 0.635395047079696 0.5241295571627435 0.3843770645038664 0.24175008311846166 0.12679661887315116 0.05451662090920609 0.01904296330281933 0.005372411909697648 0.0012143349728531286 0.00021677564135718497 2.987969593754497e-05 3.4247009634455078e-06 3.3292870700738906e-07 2.5379725618875697e-08 1.344432518567624e-09 3.6824544051741945e-11 2.0989412331218905e-15 3.4182127949940576e-13 3.778222994459102e-07 2.013550976366931e-07 7.925259532759617e-08 2.4962816209048043e-08 6.6168251729750725e-09 1.5315173196371808e-09 3.183865769434502e-10 6.071255596370376e-11 1.077578712571212e-11 1.7953167516735942e-12 2.813690239693258e-13 4.1288024238933696e-14 5.602538755797815e-15 6.880352854964088e-16 7.399213743098343e-17 6.636548222394667e-18 4.606889466869478e-19 2.1748258460906658e-20 5.173846233268645e-22 5.796218891890749e-28 0.5866244983919935 0.5659879963291528 0.5135765191216835 0.4294498454072259 0.3212076070642581 0.20783057184393466 0.11293646116408274 0.050468679072833346 0.01831632291353631 0.005358987851789264 0.0012554952595592102 0.00023310337986960376 3.373237773273292e-05 3.715727633249046e-06 3.1594716091986115e-07 2.3512934700011644e-08 1.3701194186338874e-09 5.524145478642493e-11 1.1454478100281457e-12 6.363193148567967e-17 5.166978580028474e-14 6.052554350325244e-08 3.1612239017201445e-08 1.2192654580208598e-08 3.767692129840095e-09 9.824629158420254e-10 2.2475023487647119e-10 4.6497933924570186e-11 8.904526259294001e-12 1.6049450154047145e-12 2.75032787151817e-13 4.495671883876321e-14 6.980498321252572e-15 1.0165775097211857e-15 1.3575048430475968e-16 1.6053218753387523e-17 1.5973426416055717e-18 1.2379657934971002e-19 6.551313089292129e-21 1.7508523346352156e-22 1.9387334852446743e-28 0.40353302503612937 0.3826570512668538 0.33003725073245815 0.2534696335179762 0.16856091507051457 0.09443297384914477 0.043621691271186744 0.01638213581906582 0.004959125278256085 0.001202031281388783 0.00023135313316694186 3.489712880035974e-05 4.0458681693276295e-06 3.515140479457143e-07 2.229052202742184e-08 1.2149342160632699e-09 5.313577562267141e-11 1.6084607726590791e-12 2.4998191170564625e-14 1.3603468447648303e-18 6.670828336627449e-15 8.26068678117466e-09 4.2344083992895515e-09 1.6050879587146568e-09 4.888064069348023e-10 1.2614727749221837e-10 2.8733652588987265e-11 5.966749785891654e-12 1.1586906628423314e-12 2.1438489016352734e-13 3.824897733765894e-14 6.611197768116033e-15 1.1033802711446643e-15 1.7557022284916317e-16 2.6013623747294805e-17 3.459404377532638e-18 3.9130373439392074e-19 3.475397064989057e-20 2.1205046666468793e-21 6.563249759900587e-23 7.156939458592491e-29 0.255039876616841 0.23630241587786444 0.1908390550213075 0.1320122710920272 0.07642130707664772 0.03621029442689386 0.013805226249648358 0.004271953621512238 0.0010639452670387706 0.00021112037649782654 3.300269921327234e-05 3.995821592844616e-06 3.660990705353099e-07 2.4675300249472393e-08 1.1873098787418845e-09 4.423909967469225e-11 1.4153599640949875e-12 3.150602224190105e-14 3.607518459389858e-16 1.9907555375580735e-20 7.258835029893099e-16 9.480407194294864e-10 4.776507739540285e-10 1.7845259815002167e-10 5.37857751149446e-11 1.3814841569072325e-11 3.1546037245298706e-12 6.627826237113492e-13 1.3170113534578476e-13 2.5273650933434274e-14 4.750205616208119e-15 8.801841454150473e-16 1.6046438673329326e-16 2.843457427699739e-17 4.7800951658281856e-18 7.332907090690298e-19 9.697712336142838e-20 1.0175368246206134e-20 7.393479335640992e-22 2.748092466903381e-23 2.946847786145007e-29 0.1525012899549044 0.13675071581883425 0.10137939681012005 0.06171163104520306 0.03043252242417361 0.011980853331881215 0.0037244972510394325 0.0009244757527293865 0.00018145334684041293 2.833907897334894e-05 3.555564789043659e-06 3.413255428199153e-07 2.435032785867872e-08 1.2491128121768192e-09 4.454028332740212e-11 1.0694535420461243e-12 2.400708459087255e-14 3.823766673744488e-16 3.1518389485385594e-18 2.3893662962270797e-22 6.510500344574602e-17 8.94875379157079e-11 4.4381903187596775e-11 1.638684793563493e-11 4.907137708688068e-12 1.2606901815893174e-12 2.903383941363249e-13 6.215233108783841e-14 1.2739659361973224e-14 2.5592258809746206e-15 5.12250408545342e-16 1.0308665859457605e-16 2.0860467011643864e-17 4.199463706183561e-18 8.2087452583737935e-19 1.4957435692915184e-19 2.390387614007083e-20 3.0683461896077493e-21 2.757702743991161e-22 1.2793432843613206e-23 1.3516323801608932e-29 0.08935707834103056 0.0763697312096767 0.05055724642221772 0.02626013864161099 0.010690705351185341 0.0034080277401840197 0.0008465108572986725 0.00016629473065032414 2.5528812875244082e-05 3.0679744289864627e-06 2.8909067565612487e-07 2.110548556918005e-08 1.1527664462585304e-09 4.4088330070999625e-11 1.132587137504259e-12 1.8828492983180422e-14 2.589315772752861e-16 2.849278752631003e-18 1.6421043180233704e-20 6.174459428993181e-24 4.642411644207936e-18 6.702232578976108e-12 3.27673671391006e-12 1.1985016383273756e-12 3.577740192853502e-13 9.231943864501211e-14 2.1549923416092553e-14 4.727357743652886e-15 1.0061505957271896e-15 2.1321733499587993e-16 4.587308335680914e-17 1.0144050430815956e-17 2.3135761596734486e-18 5.399387186362202e-19 1.2606447945903539e-19 2.823852634225373e-20 5.679631699535878e-21 9.315165397239947e-22 1.076314440987764e-22 6.544951652833643e-24 6.849960345025031e-30 0.05322661467517344 0.042359962286023234 0.02407979771548837 0.010157628374547584 0.00326445948882322 0.0008048314997899107 0.00015518067106877026 2.364197043360091e-05 2.8038004902600692e-06 2.5761870848715504e-07 1.821373691859924e-08 9.678337572164245e-10 3.6907784325464357e-11 1.0316827052046853e-12 1.8549297997512148e-14 2.0488714267175887e-16 1.5670548595960267e-18 1.1506349886901614e-20 4.5175683040095707e-23 2.8308093344195395e-25 2.4764751967478123e-19 3.7483936095432763e-13 1.8088492109399425e-13 6.567322685508272e-14 1.9594162963006333e-14 5.094641325567497e-15 1.2098145096786064e-15 2.7309527162446286e-16 6.063933186077225e-17 1.3632186419061002e-17 3.1750445355690394e-18 7.789503049593024e-19 2.0297076482889485e-19 5.60140402807436e-20 1.606774081631707e-20 4.611884464814023e-21 1.2328390016293637e-21 2.7386870705111944e-22 4.313844914468381e-23 3.5221186836697194e-24 3.6954745025864146e-30 0.033525554307175125 0.02385602188542248 0.011046512124592182 0.003531362028757719 0.0007903090162680909 0.00014312047810811402 2.0573715595487083e-05 2.373029645065585e-06 2.139973655357076e-07 1.489765502737549e-08 7.87239365442666e-10 3.048443502541938e-11 8.127700139239467e-13 1.4815552435377685e-14 1.7931861285264178e-16 1.2659290032415065e-18 5.073781014725925e-21 2.4069756793481462e-23 6.411303049615683e-26 9.853713239229896e-27 8.81192773189189e-21 1.3960290775540078e-14 6.656610550399297e-15 2.4026976659388524e-15 7.177827986448115e-16 1.884378028150373e-16 4.5620252930545294e-17 1.062158108461416e-17 2.4667423181343805e-18 5.901086151579049e-19 1.4944304976561059e-19 4.095308878537315e-20 1.2328173636413262e-20 4.09325724637365e-21 1.486158461263216e-21 5.6845188056043865e-22 2.199599167519277e-22 7.318226705921071e-23 1.6738381394579238e-23 1.9595668706653333e-24 2.110865087868707e-30 0.022641691246615196 0.0139884360573595 0.004739433814723933 0.0007995011322979658 0.00011646752721851367 1.4283110466995003e-05 1.4751730621489478e-06 1.2539620567639895e-07 8.464043859633487e-09 4.4212434140726487e-10 1.737503578719952e-11 4.897916803314477e-13 9.160307835747269e-15 1.0998665495969505e-16 7.855768108542981e-19 3.4922818122175034e-21 8.626770841110365e-24 2.5356344419357967e-26 4.9093500690849396e-29 1.7365487754349792e-28 1.5748342400623295e-22 2.605808594066329e-16 1.228417231621917e-16 4.4130485970630075e-17 1.321400992268044e-17 3.505284743947806e-18 8.656334077531377e-19 2.0791084374036657e-19 5.050627418537835e-20 1.2860429234648821e-20 3.545252816709849e-21 1.0888607265421781e-21 3.813332623149991e-22 1.5459781891855056e-22 7.243184546680663e-23 3.9245960371187984e-23 2.1889620112484283e-23 1.5964591114838784e-23 6.0340879760452494e-24 1.0951601694748e-24 1.2028513086427489e-30 0.015893364956627097 0.009290687615261166 3.501800648780439e-07 4.480190997566801e-08 7.283047204777081e-09 8.847657326262084e-10 9.034822606464749e-11 7.525670664561937e-12 4.968706491498647e-13 2.5371297013723365e-14 9.746818081411808e-16 2.6877715981610202e-17 4.951561147829587e-19 6.211766903761688e-21 7.786498893890253e-23 2.6251153739111217e-24 1.193811100315671e-25 3.85050005518948e-27 6.253433209005861e-29 2.07789438419176e-32 8.42967010412443e-27 8.271763641900289e-21 6.437668139885855e-21 2.5200973695184787e-21 7.36349941290297e-22 1.9051557928809011e-22 4.5683835139697703e-23 1.0655965077776623e-23 2.5123944094431887e-24 6.203048725654747e-25 1.6550462979729377e-25 4.905696713615947e-26 1.6507667827322967e-26 6.388784028912724e-27 2.8266833750505567e-27 1.4320844841514476e-27 7.072892279842939e-28 5.31851139874588e-28 3.612699974758426e-24 6.112619072817772e-25 6.9249386639040795e-31 0.011332784486296718 0.006961209118642094 1.102396893373094e-07 3.3138577091617003e-09 1.3971049226538382e-09 4.865630088001282e-10 1.4256582775729192e-10 3.5641640717346106e-11 7.670618662087475e-12 1.4281564207459244e-12 2.3025931346482937e-13 3.2043875393296536e-14 3.81784322430539e-15 3.8387092690690035e-16 3.18271672892019e-17 2.0974243352810614e-18 1.0333273011219968e-19 3.392216624683497e-21 5.58562177500269e-23 2.3755539717801427e-27 6.871251733980938e-31 3.7974773922062204e-25 3.92055945526356e-25 1.41611099832001e-25 4.074579328931698e-26 1.0227135978755603e-26 2.3853728019283167e-27 5.407474062685148e-28 1.2384864211862287e-28 2.9668464308837465e-29 7.66552827541906e-30 2.193364689631179e-30 7.091215227256747e-31 2.618182008556265e-31 1.097740057932369e-31 5.359352797778155e-32 3.5392659637774264e-32 4.7343896600832195e-31 2.0044825628056852e-24 3.256035534700064e-25 3.7618353266472795e-31 0.007707085106229556 0.005308411163784881 0.0034718011171805873 0.0019191296044858799 0.0008464557715623508 0.0003079853527407887 9.402008158913962e-05 2.4409507493273543e-05 5.437510789468659e-06 1.0446449155816322e-06 1.7330327414279315e-07 2.4753217281052407e-08 3.0201201516103583e-09 3.1034510357401644e-10 2.6250920288276325e-11 1.7621394410065776e-12 8.830670153858303e-14 2.945124055122283e-15 4.9195544713174376e-17 1.5401320141838426e-21 6.977203819439895e-26 5.0398384085409653e-29 2.2974750380572022e-29 8.148738863882453e-30 2.222143124916606e-30 5.428467670465993e-31 1.2295215787689775e-31 2.707732379612694e-32 6.040957192200447e-33 2.150857056739668e-33 1.8883460802883948e-32 3.388811498828549e-31 4.694690412140801e-30 5.009256625180024e-29 4.159585022048269e-28 2.701352425751962e-27 1.366650986750837e-26 5.313203183238045e-26 1.138337976461142e-24 1.5527730337497118e-25 1.9235582121506652e-31 0.004819907578328417 0.0034799747842006058 0.0023192372233680684 0.0012068719489568764 0.0005146650546083706 0.00018175540280008766 5.391607299143008e-05 1.3613614133745402e-05 2.9525190273327524e-06 5.529911112636502e-07 8.956955393863568e-08 1.2510865986510313e-08 1.4951636462814385e-09 1.507358477219038e-10 1.2528241500919882e-11 8.27523616678366e-13 4.085653990192559e-14 1.3438917162776248e-15 2.2151328777134832e-17 1.1314073470101867e-21 6.786645995205645e-26 4.00106774424357e-30 4.35441920027299e-32 2.0205030280678688e-32 7.702582000584496e-33 2.6227785038002304e-33 8.079737786422648e-34 2.357077866143018e-34 7.403527464490352e-35 2.429018678102247e-34 5.7227500692788655e-33 1.0853397648990627e-31 1.5594609361919826e-30 1.7268750609095212e-29 1.4943639242809354e-28 1.0241249748277085e-27 5.534607130805688e-27 2.5698662306810102e-26 3.270677209655409e-25 6.570217849592771e-26 8.80945140753126e-32 0.00260290205447585 0.0019034457002903983 0.0012001892616562853 0.0006076282927626031 0.00024633882068374115 8.320515249561553e-05 2.372311250184611e-05 5.779788663978933e-06 1.2139614775540134e-06 2.209616056965057e-07 3.490054230153955e-08 4.769479141901451e-09 5.594514941043252e-10 5.55221020217173e-11 4.554948966739397e-12 2.9765645749220913e-13 1.4567218173909524e-14 4.756303148454695e-16 7.790508547545744e-18 4.247996293878427e-22 2.3525428598034007e-26 1.343764693310216e-30 1.4223386805719375e-34 8.931650144416661e-35 4.914489023690707e-35 2.380369408272127e-35 1.0092016484795029e-35 3.9318747919589124e-36 2.1922269667510418e-36 3.045158161548265e-35 8.642559202404509e-34 1.8211737557182345e-32 2.8807252678348545e-31 3.5030691246072596e-30 3.3474103835580176e-29 2.5595167647343e-28 1.6080433064907159e-27 8.59703551312083e-27 9.767800053914323e-26 2.204510573681913e-26 3.4234277551321187e-32 0.0011856876098020512 0.0008666215054795689 0.00052663978332215 0.00025259278141043966 9.777339903052173e-05 3.139487684956533e-05 8.547186871771825e-06 1.998670872459538e-06 4.050932234531918e-07 7.153023138247946e-08 1.1016724393089313e-08 1.4752260330232725e-09 1.7033358599971667e-10 1.6709669580730614e-11 1.3599767893354197e-12 8.843883836000588e-14 4.317273335336845e-15 1.4084435513556534e-16 2.307083512132699e-18 1.1914930603085617e-22 6.507352366824204e-27 3.541331254179228e-31 6.718821841023869e-35 4.902239862150915e-37 4.135191195377298e-37 2.9539921309821432e-37 1.7592341214689263e-37 9.264002241223168e-38 9.590727285327117e-38 2.6810381373276687e-36 9.323269396444783e-35 2.3126529823680628e-33 4.222639717662289e-32 5.864371492032988e-31 6.376043301094593e-30 5.576047610029901e-29 4.029560497887263e-28 2.487136106229831e-27 2.5810404495211762e-26 6.528719501926845e-27 1.1289609575123133e-32 0.00045928666998735075 0.0003343282979854845 0.00019514653228391504 8.939611194217955e-05 3.290931907980661e-05 1.0058462031831213e-05 2.6120924310487126e-06 5.855841795013329e-07 1.1446902265537168e-07 1.961882186679713e-08 2.9515317096101014e-09 3.884510503758766e-10 4.4335945443993023e-11 4.321655733101156e-12 3.5107281526828856e-13 2.2870406864699236e-14 1.121541088103879e-15 3.6816165802147116e-17 6.072257096601449e-19 2.9450067054532595e-23 1.5632664605216866e-27 8.289251103088639e-32 1.3127502485653316e-34 3.562087427874039e-37 4.867366369988823e-39 4.28140625005943e-39 3.7059248126249255e-39 2.6776878243203383e-39 4.108638270558855e-39 1.7510385396590532e-37 7.928509676149931e-36 2.4373875493671287e-34 5.3388032658585154e-33 8.70316532913192e-32 1.0956143511615356e-30 1.0999351293934359e-29 9.068571392334554e-29 6.3173077014827956e-28 6.346830613233218e-27 1.7244153864136106e-27 3.282106091123933e-33 0.00015235223427748028 0.00011025268512912347 6.207858271879905e-05 2.7195020886782724e-05 9.55903827402858e-06 2.788209581764372e-06 6.927066473568254e-07 1.4924043649094633e-07 2.8208389474144068e-08 4.707043981718955e-09 6.944192586585856e-10 9.025673584289971e-11 1.0241806091934948e-11 9.985413246434887e-13 8.155666224258974e-14 5.36411103434664e-15 2.6636205789116524e-16 8.868512423497414e-18 1.484033599215597e-19 6.694981873359856e-24 3.4646903833755e-28 1.778026206879157e-32 5.941386303510263e-35 3.658656664111201e-37 2.999431703719373e-39 9.051892541147643e-41 8.578144544950038e-41 8.729180096210719e-41 1.686769050986544e-40 9.457100188015168e-39 5.771233344820129e-37 2.275611546598269e-35 6.140578081738899e-34 1.1961068217602334e-32 1.758212626593678e-31 2.0244054702220657e-30 1.8850402300227084e-29 1.4657679623841671e-28 1.469766718820191e-27 4.207560455970823e-28 8.685918633869479e-34 4.368100628656444e-05 3.141971999836856e-05 1.7109363143149874e-05 7.196988058606591e-06 2.424843862855242e-06 6.783255382728978e-07 1.6202444316156424e-07 3.37155076433139e-08 6.193254592200793e-09 1.0116499255205374e-09 1.4723376122992572e-10 1.902626269008856e-11 2.162552662153269e-12 2.1262475957934221e-13 1.7614708603753982e-14 1.1804285239267433e-15 5.990620370468295e-17 2.041700521061612e-18 3.4965983024600246e-20 1.466029468797731e-24 7.39337307025322e-29 3.68919326691261e-33 2.003494456502879e-35 2.0611186030046814e-37 2.929002400892479e-39 5.016773638166722e-41 2.8771205177481956e-42 3.0225116993842345e-42 7.521552953316453e-42 5.286680144143127e-40 4.0708675833556e-38 1.989592752903928e-36 6.671285781559274e-35 1.5645603214906717e-33 2.693740478971833e-32 3.5475652001685905e-31 3.702741862558747e-30 3.182132825852189e-29 3.2751257685372238e-28 9.740265338904792e-29 2.1585105103103205e-34 1.0911086795231966e-05 7.803871644894092e-06 4.121900314894195e-06 1.6714345776502278e-06 5.424995175245128e-07 1.4638232625558437e-07 3.3831653548637315e-08 6.845324462681201e-09 1.2306045485717303e-09 1.98231031856343e-10 2.8687229059754147e-11 3.7173382444711904e-12 4.271574381512645e-13 4.2775089155205186e-14 3.6320223847354884e-15 2.506807958018897e-16 1.3144867798467317e-17 4.635315981255366e-19 8.209009246273281e-21 3.208294786081841e-25 1.5768643224017087e-29 7.636680386476092e-34 6.019714181149207e-36 9.084373844409717e-38 1.9291797831890723e-39 5.010629453193727e-41 1.494998141202784e-42 1.4721400494073698e-43 3.4929654954654268e-43 3.1152218741928887e-41 3.045357546923269e-39 1.828533643549416e-37 7.3409688824156e-36 2.0190440904889852e-34 4.008186625415012e-33 6.023259549087488e-32 7.007682502661422e-31 6.598399558126283e-30 7.161949696012502e-29 2.1943814077718737e-29 5.176832993832325e-35 2.389425270607431e-06 1.7004754071234918e-06 8.736351473531198e-07 3.42964025914165e-07 1.0780594076012243e-07 2.8238143661619768e-08 6.36047422856628e-09 1.2612162675806876e-09 2.2376134733700167e-10 3.586382190250737e-11 5.210195921217791e-12 6.839771178725526e-13 8.033252556452919e-14 8.289361643265722e-15 7.302974013274934e-16 5.257906254006502e-17 2.8858938513356996e-18 1.0666489709378781e-19 1.9783962529765745e-21 7.259092854405097e-26 3.475197711875354e-30 1.6366355846785255e-34 1.9248082255290372e-36 4.978324120009561e-38 1.4161602440217005e-39 4.1856627764346065e-41 1.716599318756659e-42 7.89940762214919e-44 1.947826220445445e-44 1.8768262595242544e-42 2.356298093023075e-40 1.7451785385968015e-38 8.38338259607097e-37 2.693341044539053e-35 6.117176803424258e-34 1.0316336911238621e-32 1.3220927003889637e-31 1.3458941720511535e-30 1.5643908883143392e-29 4.923498236394694e-30 1.2281014691731794e-35 4.605349154551624e-07 3.2639326999601254e-07 1.6356865638060163e-07 6.24355284728388e-08 1.911312969333388e-08 4.89268454263135e-09 1.0823728437796737e-09 2.1214045690204628e-10 3.7492173165845853e-11 6.039537658087332e-12 8.904072937757909e-13 1.1981007077030568e-13 1.4564518831398166e-14 1.5696156368990474e-15 1.4554819264744116e-16 1.1096174381606938e-17 6.474883198637335e-19 2.548707080639825e-20 5.031410734087091e-22 1.750777376724222e-26 8.15443676260153e-31 7.294596207017646e-35 1.0481054286548392e-35 1.0276789236180311e-36 5.131802809060458e-38 1.0146949895529317e-39 3.257340098251175e-41 1.791707458594394e-42 1.0465364428858021e-43 1.1872734612105085e-43 1.8481407837419334e-41 1.7032522157368444e-39 9.8254707924458e-38 3.689270817345611e-36 9.573376938102664e-35 1.8074060282054967e-33 2.5438451841039134e-32 2.7920587684317134e-31 3.4660182777056886e-30 1.1238620016486023e-30 2.9460935284826083e-36 7.82154385729127e-08 5.525402517131664e-08 2.708608020944048e-08 1.0097453302700536e-08 3.027516548052553e-09 7.626399374268524e-10 1.6702793408159816e-10 3.265040798962954e-11 5.805507258913112e-12 9.501721113824039e-13 1.4385027329446098e-13 2.0097290717189607e-14 2.564475172158678e-15 2.9308348283054227e-16 2.9080738351149984e-17 2.3895146007103725e-18 1.5105521319831077e-19 6.459610148279052e-21 1.3857681598325915e-22 4.626460935884776e-27 2.0920383895556212e-31 1.1981392985029475e-33 3.4772887795384077e-34 4.205521379172455e-35 3.007372308492816e-36 1.245542752281601e-37 3.410642920093157e-39 2.3938378409719426e-40 1.783465347810452e-41 1.3822605839190254e-42 1.5516294397750456e-42 1.6786070687431589e-40 1.1717816010331259e-38 5.166342999931426e-37 1.5363240109775017e-35 3.2539696168381957e-34 5.037741609423531e-33 5.968954722902303e-32 7.918982924122219e-31 2.657659148316938e-31 7.2866078675804575e-37 1.1682546757911693e-08 8.233769544445057e-09 3.959417218220317e-09 1.4478928354690798e-09 4.2762828372666553e-10 1.0673540433797024e-10 2.3329821222765693e-11 4.590165619467962e-12 8.295506369946778e-13 1.3950962887212516e-13 2.1961055783447203e-14 3.2299724329119075e-15 4.393020291231843e-16 5.415401775174179e-17 5.858841386297668e-18 5.2974890607934115e-19 3.711463950832659e-20 1.767563430712392e-21 4.233776751577785e-23 1.3708915367630511e-27 5.998417149506465e-32 2.653657740341528e-32 8.095092489214238e-33 1.1113072591789982e-33 1.011205110696609e-34 6.357326846729458e-36 2.7755810060969433e-37 1.7836854822540233e-38 1.644160485924292e-39 1.5754112368144012e-40 1.554788794409217e-41 1.8031024994602077e-41 1.4108218946371891e-39 7.365159716511199e-38 2.527629675598008e-36 6.0437546179869e-35 1.035186816436478e-33 1.3307512041100788e-32 1.8935279248920424e-31 6.620018233657913e-32 1.8911985284254663e-37 1.5259649218448357e-09 1.0739623310147322e-09 5.08015926666908e-10 1.8302119578078119e-10 5.354262626153618e-11 1.333151433197103e-11 2.9311669582522306e-12 5.857061744700607e-13 1.0868018317249626e-13 1.8995284960446724e-14 3.148942168182813e-15 4.9458334800782135e-16 7.287171787530999e-17 9.870304190882747e-18 1.1891586832511804e-18 1.211942489362848e-19 9.670140126989003e-21 5.289509114855344e-22 1.4643307535322547e-23 4.631667349060746e-28 1.9515595461009384e-32 4.20887007637526e-31 1.32975627208472e-31 2.01599915966528e-32 2.1999124670305002e-33 1.8398459483186835e-34 1.2287229949855166e-35 7.909699983010282e-37 8.762021873842977e-38 1.0088469892418873e-38 1.1923833685526485e-39 1.4471894058379281e-40 1.8707295687722335e-40 1.0628337367087652e-38 4.254504147021337e-37 1.16040591821