# vtk DataFile Version 3.0
vtk output
ASCII
DATASET RECTILINEAR_GRID
DIMENSIONS 41 41 1
X_COORDINATES 41 double
0 1 2 3 4 5 6 7 8 9 10 11 12 13 14 15 16 17 18 19 20 21 22 23 24 25 26 27 28 29 30 31 32 33 34 35 36 37 38 39 40 
Y_COORDINATES 41 double
0 1 2 3 4 5 6 7 8 9 10 11 12 13 14 15 16 17 18 19 20 21 22 23 24 25 26 27 28 29 30 31 32 33 34 35 36 37 38 39 40 
Z_COORDINATES 1 double
0
POINT_DATA 1681
FIELD FieldData 1
Concentracao 1 1681 double
1.0 1.3817614715380604 0.769831814254591 0.3518675223444089 0.13674755092945307 0.046229449249046345 0.013877646645117842 0.003766874885368676 0.0009408439057286312 0.00022010092812289295 4.914086588110457e-05 1.0688299368201554e-05 2.3170105581975e-06 5.136377662864222e-07 1.1988286171439758e-07 3.046345696272831e-08 8.733964827056473e-09 2.952028581170909e-09 1.1844320032853186e-09 5.273051635586595e-10 2.4803886748533784e-10 1.0997106794797895e-10 4.359710788210732e-11 1.4273549074152517e-11 3.822865791117742e-12 8.615172948585702e-13 1.6643173043976421e-13 2.801322792932465e-14 4.1553032084566454e-15 5.471751222918475e-16 6.417467737402403e-17 6.699157768702282e-18 6.193429807145739e-19 5.0207291848361376e-20 3.5112936037734655e-21 2.066112284002191e-22 9.839522225513439e-24 3.559814939113967e-25 8.700357968727939e-27 1.0774101921699922e-28 8.619274646017772e-35 0.6909765150323974 0.7462819504862063 0.23478072965297894 0.06746133584818152 0.016908846812865443 0.003917290795534136 0.000832425408002079 0.00016289542669365673 2.9204174448455525e-05 4.7208688204651794e-06 6.504212233433171e-07 5.8576106667314495e-08 1.8486289834940392e-12 4.0591895626658916e-13 9.359326463790188e-14 2.3351662417643698e-14 6.5339902969475235e-15 2.078671030686188e-15 8.055267895767863e-16 3.4086723087301403e-16 1.038061880789387e-11 1.0350638317684545e-11 8.865589807046748e-12 1.6334398179339383e-12 3.0451579497053306e-13 4.666092362929997e-14 6.555066259652825e-15 8.359401280254079e-16 9.827256669284393e-17 1.068610196800758e-17 1.076355579084276e-18 1.0006851174558169e-19 8.512406093614712e-21 6.5282997174855e-22 4.4164943834534483e-23 2.555631116682027e-24 1.210186000758922e-25 4.3810783977239146e-27 1.0741344134668113e-28 1.3341285539644346e-30 1.06854622681496e-36 0.38525907770307555 0.38598211794203163 0.09189188459495423 0.018569244851339862 0.00334118194844902 0.0005625173125381844 8.828132367505237e-05 1.2816547049323044e-05 1.6852261302946424e-06 1.9165272844758634e-07 1.6634851328366273e-08 6.539865595102549e-10 1.472808415866808e-18 3.1780150431412804e-19 7.167698897251351e-20 1.736968355658461e-20 4.62423168938565e-21 1.412863531405869e-21 4.0214980188498794e-22 2.726874512645603e-22 7.072261752693897e-17 5.329079883106045e-12 2.2630802136794612e-12 3.1731785677499517e-13 3.96707889241249e-14 4.4295142653685855e-15 4.637374022893131e-16 4.5943634058397276e-17 4.35197634111755e-18 3.958334025638938e-19 3.4577423985612833e-20 2.8848746186444355e-21 2.2717102846523367e-22 1.6562537564278873e-23 1.0880693189157666e-24 6.211055700297075e-26 2.9317171631482125e-27 1.064000809851881e-28 2.6203288001760668e-30 3.266768382529928e-32 2.620323188205127e-38 0.17645340377738028 0.1673499205976564 0.03442571271709795 0.00554057810194833 0.0007721893738673906 0.00010024802327722759 1.2105989256682009e-05 1.3444877010747769e-06 1.3276169445571538e-07 1.0849078759939544e-08 6.090566565601179e-10 1.123288302540422e-11 1.1741955265266353e-24 2.475789579152568e-25 5.432402428837124e-26 1.2695704068102123e-26 3.2255138331932237e-27 9.098654991460538e-28 2.3290393697332117e-28 2.1814894107876548e-28 5.65779281838868e-23 1.8200138945031096e-12 6.923917326718577e-13 6.612036315896771e-14 6.273839787748016e-15 5.2663400119214e-16 4.288133106851325e-17 3.3912048559826977e-18 2.6461093526835157e-19 2.0471758301663166e-20 1.5716291453982835e-21 1.1894802955629523e-22 8.74716992330893e-24 6.106812591463059e-25 3.919513954027244e-26 2.218103350621052e-27 1.047797885048607e-28 3.823715737719227e-30 9.479532178883069e-32 1.1878224102231947e-33 9.54521711438576e-40 0.0688598952188908 0.06304569553808821 0.011699477563402694 0.0016120389590094013 0.00018544635474585628 1.9488854682876898e-05 1.8809620306053268e-06 1.64550194671574e-07 1.2497900703209818e-08 7.505315538711034e-10 2.8077980966148324e-11 2.634076146821401e-13 9.389491911040286e-31 1.9286890226671044e-31 4.1081055374483453e-32 9.266400151830042e-33 2.2514642656319484e-33 6.011260605962041e-34 1.4537399678598842e-34 1.74518277619535e-34 7.697523654626397e-29 4.720157950358454e-13 1.672958588027622e-13 1.3534565741305992e-14 1.0153716501424427e-15 6.828593131116289e-17 4.490042301081928e-18 2.9268249195130704e-19 1.9276137177408718e-20 1.293726079117076e-21 8.86925895394958e-23 6.170376537192607e-24 4.284851474818994e-25 2.89164801652316e-26 1.8276713819287138e-27 1.032246153226122e-28 4.906263253914043e-30 1.8079371241725672e-31 4.525648604849787e-33 5.709792522360689e-35 4.599745812289502e-41 0.02344320857937912 0.02092032397198996 0.003606092880282026 0.00044236961760831976 4.38562158081783e-05 3.876796329295344e-06 3.0869126123687506e-07 2.1835949479363207e-08 1.3046687555424704e-09 5.887946890223418e-11 1.51435906932318e-12 7.83205584338401e-15 4.2569589328251624e-33 1.508603953804259e-37 3.1214900822774397e-38 6.818182337973598e-39 1.5985836881038513e-39 4.11320449678022e-40 9.66356370435839e-41 1.3961410463023522e-40 7.546700334985914e-35 9.967568085389844e-14 3.393507043711153e-14 2.4512035925065146e-15 1.5754839692909748e-16 8.893055388907027e-18 4.919732417350324e-19 2.7272165302187013e-20 1.555593264540716e-21 9.25045594522181e-23 5.7644004809897374e-24 3.7423784833626056e-25 2.4861122509026458e-26 1.64014653533856e-27 1.0308337683138384e-28 5.858587416215758e-30 2.8209617730155395e-31 1.055365026704466e-32 2.6778053039311393e-34 3.409774847948988e-36 2.755740713989445e-42 0.007113766910314765 0.00622599521918938 0.0010137966735586158 0.00011356331488195678 9.983104278298074e-06 7.634054425488137e-07 5.142510370358645e-08 3.0066720175999853e-09 1.4416963223757025e-10 4.993639297666484e-12 9.102338741676933e-14 2.794084648567957e-16 4.523972511980411e-35 1.188098859744179e-43 2.3931027083219206e-44 5.0848017408127396e-45 1.1596276317945211e-45 2.909753905652656e-46 6.711906439773617e-47 1.1169092549373465e-46 8.258640399922895e-41 1.769480568261544e-14 5.861267125991907e-15 3.9243897189868137e-16 2.2530061838399958e-17 1.1143242320039051e-18 5.3709530044139326e-20 2.6089428400624795e-21 1.3216624125027792e-22 7.115373186647623e-24 4.1062764801519773e-25 2.528861158707484e-26 1.6306566910291375e-27 1.0652927027583113e-28 6.733754494033475e-30 3.8891936517765387e-31 1.91289577466963e-32 7.3137400975644936e-34 1.8900623142038587e-35 2.436131664042944e-37 1.9771669406547718e-43 0.0019613297013328507 0.0016899511833724755 0.00026279199766088756 2.7314919062029917e-05 2.1702574629014983e-06 1.464127614274139e-07 8.501767912644334e-09 4.180265993585055e-10 1.6357262155254788e-11 4.430736891516265e-13 5.886273501205997e-15 1.1430536218648385e-17 7.674223510862038e-37 9.432794788214981e-50 1.8544758266510474e-50 3.8492590744048176e-51 8.5900765843202e-52 2.116370272688631e-52 4.82152284141819e-53 8.935249180756196e-53 9.07969718233292e-47 2.695987669991987e-15 8.758342549340747e-16 5.548392299178361e-17 2.930671281450325e-18 1.3098709935409203e-19 5.666343823342759e-21 2.476879065770495e-22 1.1411418961234852e-23 5.680746318369546e-25 3.094446067922883e-26 1.8392015299052392e-27 1.1694166517575071e-28 7.674560000526006e-30 4.9428307492159636e-31 2.9347114929031723e-32 1.489034247575979e-33 5.864621387743378e-35 1.5526876733932694e-36 2.0330088194822027e-38 1.6589566524513392e-44 0.0005005947368866238 0.00042564280920957923 6.36257648502358e-05 6.198847093418655e-06 4.505614440319956e-07 2.716671243961732e-08 1.377437132902388e-09 5.768017916625828e-11 1.8659673527609848e-12 4.0149291786533165e-14 3.982993087587475e-16 5.157536452108121e-19 1.7483168572661412e-38 4.533858516317502e-53 1.4526144323880544e-56 2.955899243918313e-57 6.482296627527876e-58 1.5749416641715474e-58 3.5554411855373267e-59 7.148181594678937e-59 1.014218390384923e-52 3.5653837125492424e-16 1.1416685499707723e-16 6.93971910776466e-18 3.4409417539639914e-19 1.4227893003233144e-20 5.65769567531499e-22 2.277567547143369e-23 9.75247028136569e-25 4.5810279483889823e-26 2.4004575517238805e-27 1.401681145489049e-28 8.93723076255996e-30 5.9861593736451e-31 3.9864645553629354e-32 2.4657898966663015e-33 1.3057104196405865e-34 5.348273884907492e-36 1.4610042516159356e-37 1.9518219444161796e-39 1.6037346330582493e-45 0.00012057339977961791 0.00010128930829757448 1.4605213259103492e-05 1.340666542629505e-06 8.972565739996941e-08 4.869685336690497e-09 2.172132545731487e-10 7.807416048997525e-12 2.1068839105804567e-13 3.644251691624496e-15 2.7534736312735792e-17 2.4784496553940253e-20 4.81368200372921e-40 3.4413527880963435e-55 1.148910337894621e-62 2.2986167461378306e-63 4.969049755239534e-64 1.1939816003462861e-64 2.6764950819035647e-65 5.71853239612802e-65 1.1369974844855497e-58 4.1125070537841836e-17 1.3025105971311471e-17 7.67166284234239e-19 3.623962613045394e-20 1.411365260274889e-21 5.2605814668792017e-23 1.9893876312563668e-24 8.074059569630323e-26 3.647918507914864e-27 1.8734595501715262e-28 1.094574674948891e-29 7.124679133499366e-31 4.955834161321152e-32 3.469835041287726e-33 2.2708672256328768e-34 1.2724665530572546e-35 5.483557042379916e-37 1.5591009276719377e-38 2.136689162835182e-40 1.7710559897991418e-46 2.7979946518245415e-05 2.3226774400863094e-05 3.2322135827711414e-06 2.797781559261454e-07 1.7259932990626765e-08 8.444223314250599e-10 3.319920359155274e-11 1.0272064593171344e-12 2.3227644607683184e-14 3.2549903965985993e-16 1.9009203455321412e-18 1.2275246063076406e-21 1.4858689625221006e-41 4.5278464912945636e-57 9.160368355648472e-69 1.8062480185840842e-69 3.858154176340093e-70 9.187216152428676e-71 2.0478791977055905e-71 4.574816422516073e-71 1.2693415591146233e-64 4.133202026963585e-18 1.2980736414850496e-18 7.462463253420531e-20 3.3964067808365106e-21 1.26362924641548e-22 4.486224567824152e-24 1.6213023594801832e-25 6.348388223358681e-27 2.8089941971639903e-28 1.4400276652444805e-29 8.576379210796217e-31 5.808002360584979e-32 4.2766200202210605e-33 3.2085215373486828e-34 2.2627266479328676e-35 1.3642771635533081e-36 6.273995678742867e-38 1.8769440661489087e-39 2.65674211325556e-41 2.2265766799278535e-47 6.401148092560898e-06 5.245784994435489e-06 7.026607656004409e-07 5.7120688408221235e-08 3.2327205010284652e-09 1.4188492217186452e-10 4.897224012039494e-12 1.3009756392132195e-13 2.4644038787758236e-15 2.8071978223737036e-17 1.2793961227419275e-19 6.062815912932873e-23 4.8406232477705125e-43 7.680532565784237e-59 2.4928767739883346e-71 1.4310179530154977e-75 3.02603120938539e-76 7.152189549518122e-77 1.5869472463439799e-77 3.659846039598408e-77 1.399344859458703e-70 3.5946618650956923e-19 1.1216201539924408e-19 6.329130688828146e-21 2.8000477271261753e-22 1.0066473741029559e-23 3.450231136371417e-25 1.2094214607169855e-26 4.642401101103238e-28 2.0460773968563987e-29 1.0659555063214575e-30 6.595563565965676e-32 4.741512762954444e-33 3.775142633187369e-34 3.102190080120959e-35 2.409596773663441e-36 1.595862566761471e-37 7.973966515187402e-39 2.5450362314720955e-40 3.753538254572435e-42 3.190143984411538e-48 1.4818069692502838e-06 1.1960509593090221e-06 1.5316640307108082e-07 1.1577187095914734e-08 5.938525627806426e-10 2.309637437470119e-11 6.920919322511299e-13 1.564968359418025e-14 2.469904110615874e-16 2.2840078951432487e-18 8.161753004387331e-21 2.881377413847788e-24 1.5762401244587844e-44 1.4554273536512382e-60 1.6926572537258283e-73 1.1405710424445011e-81 2.3916024783669294e-82 5.617935641799231e-83 1.2418355782136892e-83 2.927871458919909e-83 1.5093025431706704e-76 2.6684049105932285e-20 8.284515273284331e-21 4.608955371863519e-22 1.996114211064235e-23 7.000009442532101e-25 2.342541593006463e-26 8.068516972819189e-28 3.080134880226035e-29 1.3737814368291756e-30 7.40098067221148e-32 4.8499996020442446e-33 3.7810955280019155e-34 3.33278238987829e-35 3.0775333274647756e-36 2.704306261238661e-37 2.0198011778602317e-38 1.1224125847397949e-39 3.893341899546312e-41 6.0518490244597185e-43 5.2370172021238656e-49 3.5757417146932416e-07 2.830353884040973e-07 3.424659926349237e-08 2.3615938110367627e-09 1.074313151659995e-10 3.619580490088725e-12 9.232910424283878e-14 1.7496118863565673e-15 2.2760405172383022e-17 1.6988800994582e-19 4.760722257990838e-22 1.263108868682864e-25 4.853929513886635e-46 2.788585914832452e-62 1.516452227513122e-75 3.228268171914045e-85 1.9005800363244217e-88 4.442100568061465e-89 9.789236268494336e-90 2.342293036991159e-89 1.5924621591241095e-82 1.6523605320393258e-21 5.110636347335685e-22 2.813089226470947e-23 1.199554934100385e-24 4.135180565187715e-26 1.3640696505367842e-27 4.6685424080999437e-29 1.795320928087527e-30 8.222652285499943e-32 4.6578669376688e-33 3.2955296893018526e-34 2.849069885684326e-35 2.853570424390112e-36 3.051424288726996e-37 3.136973871165333e-38 2.734727487339366e-39 1.7456081567015349e-40 6.743755851907401e-42 1.1232344906221176e-43 9.945272664630542e-50 9.310026379385276e-08 7.179928068961679e-08 8.03052427012866e-09 4.908179433140369e-10 1.903235434413041e-11 5.360020363311988e-13 1.1283259295571111e-14 1.7515617965170733e-16 1.8486558157989852e-18 1.1032031035729823e-20 2.4156160520214908e-23 4.83484009401686e-27 1.3256082082956083e-47 4.938662852717772e-64 1.4304342106918588e-77 8.055677153152186e-88 1.5158688279663103e-94 3.528859184495221e-95 7.757996871171885e-96 1.8738312879361994e-95 1.6083838695421023e-88 8.22677729428888e-23 2.5372855332664108e-23 1.3856384392786099e-24 5.844400520123928e-26 1.9929273932603182e-27 6.531534281181261e-29 2.242448598199197e-30 8.784739663838255e-32 4.186293216390942e-33 2.532594511779913e-34 1.97099659800707e-35 1.9330946799968223e-36 2.262606005746872e-37 2.9014106957243796e-38 3.6406297611578486e-39 3.888134094705214e-40 2.9798061686877397e-41 1.3332583069775803e-42 2.4257061755413635e-44 2.2171913966581095e-50 2.714377278141861e-08 2.0160004056656056e-08 2.037151134547847e-09 1.0336495370692265e-10 3.232371021645123e-12 7.140514594334318e-14 1.1899299789202456e-15 1.4690729324209526e-17 1.233792631113046e-19 5.81476753030096e-22 9.887562454659624e-25 1.4929448577451996e-28 2.946240776413857e-49 7.301387083228312e-66 1.2102895160747813e-79 2.6000073642030923e-90 1.2115983211683486e-100 2.8121643475572886e-101 6.171329561799129e-102 1.4990623415012413e-101 1.9443391862697958e-94 3.0966036941221366e-24 9.530270127533446e-25 5.174797348742431e-26 2.1665020919698648e-27 7.344102669145551e-29 2.4064398080583486e-30 8.352190026776337e-32 3.364348893496986e-33 1.6870945999106734e-34 1.1051643065565636e-35 9.624730471097066e-37 1.0945615899370078e-37 1.5409964843051685e-38 2.4611590401860568e-39 3.975575544089088e-40 5.565500551938418e-41 5.5440075163246165e-42 3.002057297906496e-43 6.235210904545391e-45 5.902061512043993e-51 9.274983590913092e-09 6.594662660709699e-09 5.509829108709458e-10 2.2336384997499828e-11 4.743015535140911e-13 7.640571633332395e-15 9.550271451444459e-17 9.086878795918422e-19 5.9470894488233285e-21 2.1848324422640272e-23 2.863725455515038e-26 3.254755682391062e-30 4.641800621783629e-51 7.765076935890793e-68 7.67173324374793e-82 7.329494483658898e-93 7.771656158656866e-105 2.245427849559733e-107 4.921780548686707e-108 2.430453870617782e-107 2.304620662138148e-100 7.851491399214332e-26 2.4124326823737815e-26 1.3044090147954543e-27 5.434326900356088e-29 1.8378236405349505e-30 6.048522992962509e-32 2.134687247477392e-33 8.905133985595265e-35 4.741108356156472e-36 3.400998001991935e-37 3.36268082117495e-38 4.521504790734105e-39 7.858801512646168e-40 1.6277338539643017e-40 3.557582685108037e-41 7.274775073561056e-42 1.0574779232510497e-42 8.072831201819981e-44 1.897312546248555e-45 1.9267541981526957e-51 3.7483060243546215e-09 2.5224266867168113e-09 1.9434590164484427e-10 3.49164169973156e-12 4.525525274627899e-14 4.775094028618735e-16 4.285282086437891e-18 3.047807137074849e-20 1.5267572615957526e-22 4.321523081548325e-25 4.335692663652509e-28 3.6972937715666585e-32 3.814493973556222e-53 4.340195600674756e-70 2.6123498479671684e-84 1.1947057423656485e-95 1.9379215724197848e-108 1.7950145235968953e-113 3.9322206072221105e-114 1.944350257622099e-113 1.9949529649268236e-105 1.0084359787018995e-27 3.0932330722512854e-28 1.667231373137875e-29 6.923008095640049e-31 2.34081188032445e-32 7.760397242923866e-34 2.795089156857857e-35 1.213236480886753e-36 6.89875462668048e-38 5.461296019346832e-39 6.195263800101922e-40 9.989643338175896e-41 2.1917163821055275e-41 6.043016647525824e-42 1.9274705238911404e-42 5.72475149579595e-43 1.936528427001766e-43 2.1517315900287203e-44 7.622850439420546e-46 7.630167115602962e-52 1.6780826284770494e-09 1.2998233831708336e-09 5.3579645029314805e-15 8.323170417717076e-17 1.316616964482095e-18 1.4981852968466008e-20 1.4339776636329687e-22 1.0677304913781403e-24 5.5419232544001454e-27 1.6125580888944602e-29 1.6534820848287206e-32 1.4344192374039322e-36 1.5001802776122853e-57 1.7251577961744273e-74 1.0473527176355024e-88 4.814944110723333e-100 7.930031802125722e-113 7.049816514665441e-118 2.3056384771953366e-118 7.760363663061443e-118 3.346833863648084e-110 2.2245589156571837e-32 1.1497110784664174e-32 6.914383098549432e-34 2.8694656208158533e-35 9.680721655101821e-37 3.1820954628546355e-38 1.134032555077307e-39 4.856629974525948e-41 2.7162065259135764e-42 2.1068850351962048e-43 2.331064284634017e-44 3.644485594605238e-45 7.693524959638246e-46 2.01733171719625e-46 6.055531794987511e-47 1.6028842557930209e-47 5.614603239859444e-48 1.219511698133275e-44 3.4399880295888665e-46 3.3815562923574445e-52 7.93167491597242e-10 6.459361938380277e-10 4.509114211382577e-20 2.1216868195349086e-21 3.673782525522455e-23 4.662203826357185e-25 4.757489442552278e-27 3.720694581138236e-29 2.003774554884144e-31 6.000423072491318e-34 6.293238943615311e-37 5.557867858707333e-41 5.895472082771493e-62 6.855844164140708e-79 4.1976180937903155e-93 1.944386952105131e-104 3.204076622889527e-117 2.911451648536787e-122 9.030363862138261e-123 2.9347009978336144e-122 9.888255264758488e-115 7.2006583646067555e-37 5.032980799264011e-37 2.8564879352997027e-38 1.1941635480814326e-39 3.9937105666691873e-41 1.3024409614321085e-42 4.591735020245392e-44 1.9402417387533354e-45 1.0672090816490537e-46 8.110345927588008e-48 8.749547476413646e-49 1.3256687968691295e-49 2.6894062876759304e-50 6.706189255319635e-51 1.8712211138824295e-51 4.590204805394146e-52 1.2431569288922222e-52 6.372336711799947e-45 1.7368047348673089e-46 1.5903453098108802e-52 3.5338877072533804e-10 3.3295839061295533e-10 1.2531375408256734e-24 5.041428989816683e-26 1.0653652585045581e-27 1.4587568294742327e-29 1.588661750445483e-31 1.301526837006606e-33 7.267421039384954e-36 2.2385525669043768e-38 2.40077717803153e-41 2.1581457404554293e-45 2.3216615516195024e-66 2.7300233917867365e-83 1.6861980702328296e-97 7.85694396388184e-109 1.2991352846473261e-121 1.1795550264597641e-126 3.0301248228558888e-127 2.5215301086452317e-127 2.7265101447162383e-119 5.780075890757263e-41 2.1474795585079996e-41 1.223723157341557e-42 4.959151304880667e-44 1.649652502317787e-45 5.331449828764778e-47 1.860218683579224e-48 7.758322276361117e-50 4.199085750032982e-51 3.12836170046312e-52 3.2932031308638883e-53 4.8401014138006953e-54 9.453461355991201e-55 2.2428753258667975e-55 5.892659533796722e-56 1.2894431683035543e-56 3.6008217235515704e-57 3.6000922390536907e-45 7.860063750566463e-47 7.076931863752589e-53 1.4083693850272305e-10 1.255180801635227e-10 4.361334942759631e-25 7.46020853870901e-27 9.24846869057939e-29 7.964215942803326e-31 6.087433847824219e-33 3.7332637762397187e-35 1.6514761693499593e-37 4.222566982122919e-40 3.914171581618336e-43 3.1492729297104735e-47 3.1233625128622583e-68 3.469105635826092e-85 2.0628397404546702e-99 9.385719828878188e-111 1.5304788154730666e-123 1.3792590900183717e-128 3.530648475526825e-129 2.150150557592858e-133 1.3224044785426824e-124 7.26415412151114e-44 2.998068509598002e-44 2.2831139088268404e-45 1.3216516420821243e-46 6.257058841780413e-48 2.8045440873547645e-49 1.318962410593865e-50 7.235411027869408e-52 5.056872362732917e-53 4.8086144369845735e-54 6.4337677687884976e-55 1.206701032770411e-55 3.054943003788577e-56 9.630125225264666e-57 3.5964980076956985e-57 1.1120531182386341e-57 6.817272291970509e-58 9.801677000826681e-46 3.1891847522216787e-47 2.835998708175565e-53 4.63751291506415e-11 3.9473744737128035e-11 1.118129436756042e-25 1.5015785479541563e-27 1.2114705537688102e-29 7.355246040802698e-32 4.131700797740242e-34 1.9618331447517957e-36 7.019431371891575e-39 1.5115041105496672e-41 1.2234985960319885e-44 8.878112647012942e-49 8.16421452011417e-70 8.60341480505097e-87 4.94189719310281e-101 2.2014591664025465e-112 3.5471707248088513e-125 3.1772101649116182e-130 8.111502646261015e-131 2.0530504559358997e-139 2.747049367228498e-130 1.5195255446843612e-46 7.219306048135247e-47 7.666885094051261e-48 6.538997892638244e-49 4.492117431918306e-50 2.8231742704066914e-51 1.799240111561063e-52 1.3001444531692716e-53 1.1715421669223858e-54 1.4157364061355356e-55 2.3889158995841155e-56 5.650758174088933e-57 1.8181918619978922e-57 7.429889428127441e-58 3.6793573936823096e-58 1.60344518843647e-58 1.3886460528853845e-58 2.7469669741552998e-46 1.0054705374918152e-47 9.55538173660306e-54 1.2497483027006537e-11 1.020055333139197e-11 2.5805673616432862e-26 2.8080347378816413e-28 1.777455798488773e-30 8.22897639112984e-33 3.6115333315228114e-35 1.378269166038404e-37 4.0967752639023e-40 7.572140034563579e-43 5.428960615892746e-46 3.591490114975983e-50 3.0881742000693494e-71 3.1081310859244747e-88 1.7336831821812848e-102 7.592159345625419e-114 1.2125273748385213e-126 1.0817956320196216e-131 2.7582201594995798e-132 2.4853357630235868e-145 2.872749043870082e-136 3.500499034379004e-49 2.0064270817255296e-49 3.22425965073397e-50 4.299699578800539e-51 4.439710915661263e-52 3.9897133083062347e-53 3.48059077003209e-54 3.326172684217246e-55 3.861992992773884e-56 5.903388086399161e-57 1.2453368268524812e-57 3.6625194632576776e-58 1.4664288026249266e-58 7.5011658491196865e-59 4.705484106384681e-59 2.6157893891721222e-59 2.861790763666796e-59 6.722194435696501e-47 2.773333187338192e-48 2.7214229177731455e-54 2.834833903359344e-12 2.2450484011163322e-12 5.18325242975015e-27 4.9064027899219946e-29 2.5874656622176315e-31 9.836839658257813e-34 3.547976494641324e-36 1.1311344232648755e-38 2.873125161372835e-41 4.657309635509024e-44 3.0070431402490894e-47 1.837480406982313e-51 1.4929719062657901e-72 1.4472889750748636e-89 7.892969593544946e-104 3.416218660467276e-115 5.430307366270987e-128 4.8400867329510785e-133 1.234514668402232e-133 3.120332636635847e-151 3.1038271404009834e-142 5.465529023255597e-52 4.410838659258719e-52 1.3223677793775546e-52 3.1168787072705232e-53 5.1561591439466465e-54 6.851118964658003e-55 8.325106520599958e-56 1.0604765193744423e-56 1.589024563184391e-57 3.0618258294122225e-58 8.007313287408517e-59 2.8876235918555575e-59 1.4084910502734442e-59 8.748154672830524e-60 6.642311919516482e-60 4.4338847124957665e-60 5.696454255207487e-60 1.5204678762762187e-47 6.776269206386643e-49 6.836374705566613e-55 5.515144428015021e-13 4.267841541469278e-13 9.216928866370167e-28 7.844097863369952e-30 3.616479411356915e-32 1.1817541540458268e-34 3.654858720478053e-37 1.0073093535985348e-39 2.2475825937090292e-42 3.266316204294178e-45 1.9333745252701102e-48 1.1072435067350011e-52 8.603789018969997e-74 8.113680933043851e-91 4.36182918681011e-105 1.8783008921029657e-116 2.98675140664774e-129 2.669208583850925e-134 6.825726290151331e-135 4.335380673464616e-157 3.3737916587987235e-148 4.370394220997219e-58 1.5075491005247683e-55 3.619433813689848e-55 2.08172812387643e-55 6.240858250633297e-56 1.297887839565213e-56 2.2600366965306013e-57 3.890626879617093e-58 7.5608398178869725e-59 1.8340912147693847e-59 5.907771049972311e-60 2.5815283787415204e-60 1.5067921101411598e-60 1.1080631042762953e-60 9.851528522630468e-61 7.586453473069009e-61 1.101059536744115e-60 3.224384049050407e-48 1.523757026043468e-49 1.5675761718228868e-55 9.356793349283865e-14 7.114274374270548e-14 1.4594897916405765e-28 1.1459275425475826e-30 4.764239522982826e-33 1.3850831350882199e-35 3.795514990792967e-38 9.3139903982491e-41 1.87233660347084e-43 2.492371008802627e-46 1.3772079338654425e-49 7.506877407901225e-54 5.652142786588594e-75 5.243239957235436e-92 2.8048143706446634e-106 1.2109724794308807e-117 1.9380466525593244e-130 1.7442701498221243e-135 4.4838302102892405e-136 6.518836778803657e-163 3.809003435219668e-154 3.482030705347853e-64 1.202282631089838e-61 2.8949417770050825e-61 9.5296188660895e-58 6.930403029410957e-58 2.497753552561596e-58 6.52611609017816e-59 1.552453266058125e-59 3.951638033744807e-60 1.2093311110590975e-60 4.780476976612766e-61 2.5096175909790734e-61 1.729472676743761e-61 1.4785370895974118e-61 1.5046053408672032e-61 1.3033675153042918e-61 2.0841518252853538e-61 6.563418574490928e-49 3.2440223701936613e-50 3.3885695446520758e-56 1.4010039880948139e-14 1.0508139409604313e-14 2.0720190620640217e-29 1.5283383613787421e-31 5.865358162350086e-34 1.5567580485951463e-36 3.880573520121675e-39 8.692716895985317e-42 1.6105665266524616e-44 2.0039805019478213e-47 1.0524564391049157e-50 5.547050786905346e-55 4.103716681885596e-76 3.790684941983275e-93 2.0391745101285315e-107 8.905421621410282e-119 1.444636762565856e-131 1.3161930517924667e-136 3.4119084310263214e-137 1.0601167402200129e-168 4.418054425570607e-160 2.7588494001267555e-70 9.536867761190395e-68 2.304305168184351e-67 6.178802969913544e-61 5.80766098169118e-60 4.4707224696503207e-60 1.8923681129365977e-60 6.44210324824632e-61 2.18355075500982e-61 8.485388790061045e-62 4.117073109639159e-62 2.5846944218247e-62 2.085259138948635e-62 2.0480436357309576e-62 2.351433095995225e-62 2.2556353126809705e-62 3.915368062890861e-62 1.3094920191658636e-49 6.715260665675697e-51 7.101562056425489e-57 1.8667480752575025e-15 1.3853715955612224e-15 2.6486814026967214e-30 1.8610436895705646e-32 6.711016205522941e-35 1.6595942923648884e-37 3.844628199695663e-40 8.030907704371939e-43 1.3995612490198724e-45 1.6589921361545714e-48 8.42715273980823e-52 4.364208969081617e-56 3.218962198288738e-77 3.0001838243204464e-94 1.642038138499316e-108 7.327212814797517e-120 1.214727220341337e-132 1.127205250671499e-137 2.957790481692261e-138 1.8587403393041097e-174 5.2291988454715505e-166 2.168766979941455e-76 7.507364498443868e-74 1.821347923112342e-73 4.916464970561497e-67 2.143678624985569e-62 6.595951114148036e-62 5.192046011126287e-62 2.671930969431477e-62 1.2371138724954672e-62 6.178003510097472e-63 3.695326993311545e-63 2.77340924235744e-63 2.6097593552955474e-63 2.926619500273291e-63 3.761604078336974e-63 3.96207999484482e-63 7.404037417067665e-63 2.612112693430812e-50 1.383660313574438e-51 1.4791482018666533e-57 2.2237614956521964e-16 1.6367411513876678e-16 3.0549670386275856e-31 2.0670132697186177e-33 7.103510297773213e-36 1.663943196550946e-38 3.6471168843049714e-41 7.236170786624207e-44 1.2080970764147482e-46 1.3887589391084728e-49 6.940515126705088e-53 3.589318455311233e-57 2.6801325036728663e-78 2.5566492330239632e-95 1.4423913756387708e-109 6.6525466688412445e-121 1.1380130875387303e-133 1.08342524549426e-138 2.890866075057354e-139 3.51289826738458e-180 6.263208112919742e-172 1.687021896667667e-82 5.849330868814204e-80 1.4259727630780353e-79 3.879467770128578e-73 1.7094773632803654e-68 6.382534991322119e-64 1.2541324902421226e-63 1.0653269880962492e-63 6.99776973283072e-64 4.573901576301666e-64 3.403269332342031e-64 3.065311001484889e-64 3.3669275563343946e-64 4.3059575317729714e-64 6.180815113095681e-64 7.126640421276436e-64 1.4294771532189063e-63 5.3058319833687903e-51 2.898063600023611e-52 3.1299599085905124e-58 2.3711910666143083e-17 1.7341146610457756e-17 3.1771482393638496e-32 2.088312615589922e-34 6.918948691698391e-37 1.5564536293610663e-39 3.277500571489126e-42 6.277759059937426e-45 1.0209781372241943e-47 1.157458311827845e-50 5.786890853724625e-54 3.0381308757105676e-58 2.3338258199314674e-79 2.314222348476016e-96 1.3657379550411048e-110 6.598375529668979e-122 1.178152224856458e-134 1.1610434985880865e-139 3.1680676103716843e-140 7.170226540062688e-186 7.5297389813276e-178 1.294421361040551e-88 4.4970051450074355e-86 1.102693840663997e-85 3.0280025966795654e-79 1.3508289234037428e-74 1.639534293419434e-66 2.4013140848993895e-65 3.9141555416355e-65 3.854003356397737e-65 3.383555001740546e-65 3.1751970360519755e-65 3.459531921500121e-65 4.457401695648756e-65 6.521984743360559e-65 1.0478474367556824e-64 1.3247022990979213e-64 2.855299551517156e-64 1.1160049777059392e-51 6.288112528096511e-53 6.862454322047395e-59 2.2578029024870177e-18 1.6431518609601797e-18 2.9684080965151143e-33 1.9091729488144524e-35 6.157743020590575e-38 1.3459684521915201e-40 2.7594702171955966e-43 5.1772739221083025e-46 8.32950750877725e-49 9.46267960506015e-52 4.811399908369844e-55 2.6077873320186397e-59 2.0962220782493002e-80 2.1979112916475355e-97 1.3797448665857584e-111 7.094648361490487e-123 1.3409339332231856e-135 1.383253915840821e-140 3.88784721457907e-141 1.5879279230191666e-191 9.013983127329434e-184 9.759517641436583e-95 3.399014784716897e-92 8.394780548365887e-92 2.3313723154021037e-85 1.0553417113541751e-80 1.3030903751640022e-72 3.000041388307896e-67 1.259970827338881e-66 2.0148309146620206e-66 2.459526966220449e-66 2.9654368398907034e-66 3.9547942665530936e-66 6.029339328276404e-66 1.016688752858313e-65 1.840143045203147e-65 2.5656683050117894e-65 5.972543817893438e-65 2.467749495040592e-52 1.4380473397289489e-53 1.587135643258913e-59 1.9076436489346038e-19 1.3833307325297374e-19 2.473365159105116e-34 1.5661672063335666e-36 4.95829272148057e-39 1.0638448762324081e-41 2.1487277331438643e-44 4.0011010293253204e-47 6.4597556