# vtk DataFile Version 3.0
vtk output
ASCII
DATASET RECTILINEAR_GRID
DIMENSIONS 41 41 1
X_COORDINATES 41 double
0 1 2 3 4 5 6 7 8 9 10 11 12 13 14 15 16 17 18 19 20 21 22 23 24 25 26 27 28 29 30 31 32 33 34 35 36 37 38 39 40 
Y_COORDINATES 41 double
0 1 2 3 4 5 6 7 8 9 10 11 12 13 14 15 16 17 18 19 20 21 22 23 24 25 26 27 28 29 30 31 32 33 34 35 36 37 38 39 40 
Z_COORDINATES 1 double
0
POINT_DATA 1681
FIELD FieldData 1
Concentracao 1 1681 double
1.0 1.0000000000000002 0.9999999999999997 1.0 1.0 1.0 1.0 1.0 0.9999999999999998 0.9999999999999996 0.9999999999999989 0.999999999999999 0.999999999999999 0.9999999999999989 0.9999999999999989 0.9999999999999849 0.9999999999936339 0.9999999995433542 0.9999999865673791 0.9999997959116587 0.9999996309506561 0.9999994634220984 0.9999993207755608 0.9999991707010322 0.9999990107422733 0.9999988434329514 0.9999986701593803 0.9999984921412708 0.9999983102000969 0.9999981248919685 0.999997936552049 0.9999977453216949 0.9999975511178473 0.9999973535485499 0.9999971511869093 0.999996892944716 0.9999933954594056 0.9998412269690397 0.9950015174626503 0.8990134699047047 0.00011114503864875826 1.0 1.0000000000000002 0.9999999999999996 1.0 0.9999999999999998 0.9999999999999996 0.9999999999999996 0.9999999999999991 0.9999999999999991 0.9999999999999984 0.9999999999999982 0.9999999999999984 0.9999999999999986 0.999999999999998 0.9999999999998552 0.9999999943803964 0.9999968860553932 0.9997155310676599 0.9891655875257559 0.8088623782731993 0.8169928765240227 0.8333801090123155 0.8830925424971096 0.9089321221249596 0.9271427399503301 0.9394852180473894 0.9485144764930037 0.9553941336350003 0.9608766486175611 0.9654253533873859 0.9693473195217673 0.9728516985298712 0.9760850210211641 0.9791511886249792 0.9821236785669416 0.9850529585367989 0.9879688267064684 0.9907454183505743 0.98885918868103 0.8959370452489629 0.00011095115093775358 1.0 1.0000000000000002 0.9999999999999997 1.0 1.0 1.0 1.0 0.9999999999999993 0.9999999999999991 0.9999999999999989 0.9999999999999984 0.999999999999998 0.9999999999999976 0.9999999999999968 0.999999999998531 0.9999999545590398 0.9999802474777887 0.9987383283762893 0.952677185667384 0.009182719293075242 0.0023766516088346997 0.8333306230106005 0.852859941718688 0.8760105123697002 0.8930858374240539 0.9067753475876882 0.9176532895015136 0.9265658252248073 0.9340687782898127 0.9405850781378337 0.9464266550656201 0.9518290185567769 0.9569721765910106 0.9619941660527487 0.9669996475310261 0.9720663886629786 0.9772454196756901 0.982426725435317 0.9831105743217688 0.8931089612642039 0.00011076748746947896 1.0 1.0000000000000002 0.9999999999999999 1.0 0.9999999999999998 0.9999999999999998 0.9999999999999994 0.999999999999999 0.9999999999999989 0.9999999999999984 0.9999999999999982 0.9999999999999984 0.9999999999999976 0.9999999999999971 0.9999999999915059 0.9999997884268745 0.9999317054808363 0.996226605676679 0.9116806561099132 0.006692708731944476 0.00027958094664763124 0.833235080450384 0.8473003036404612 0.861975551029271 0.8759634034536325 0.8879475745625129 0.8982867864720416 0.9072460884014599 0.9151569921744104 0.9223055836237188 0.9289399165634679 0.9352699363727954 0.9414723624077476 0.9476959410248259 0.9540637233954538 0.9606755454974141 0.9676056698283854 0.9747659020881919 0.9777040905914169 0.8905605058019977 0.00011059529597662753 1.0 1.0 1.0 1.0000000000000004 0.9999999999999999 0.9999999999999996 0.9999999999999997 0.9999999999999994 0.9999999999999993 0.9999999999999992 0.9999999999999989 0.9999999999999987 0.999999999999998 0.9999999999999974 0.9999999999629817 0.9999992674303124 0.9998164416113162 0.9921930243085119 0.8720240869849771 0.007174123823459289 0.0002801754580506361 0.8330799337698552 0.8439806749787623 0.855290851523989 0.8661881151897118 0.8762948165052816 0.8854468631780269 0.8937514415539143 0.9013685243714064 0.908487140005907 0.915295789341231 0.9219752629168632 0.9286942629436901 0.9356085047299046 0.942859100841091 0.9505719242144246 0.9588521813571147 0.9676469068801092 0.9725859560255967 0.8883423959751483 0.0001104362730815459 0.9999999999999998 0.9999999999999997 1.0 1.0000000000000002 0.9999999999999998 0.9999999999999993 0.9999999999999992 0.9999999999999991 0.9999999999999991 0.9999999999999986 0.999999999999998 0.9999999999999982 0.9999999999999973 0.9999999999999961 0.9999999998636603 0.9999978447701653 0.9995819179847606 0.986370920895473 0.8294201086123667 0.006799046524312507 0.0002774562655924218 0.832867723724745 0.8418384609291291 0.8509771350913672 0.8599259451565325 0.8684320924763671 0.8764115113837002 0.8838833914678327 0.8909435526741704 0.8977245578982344 0.9043787637868366 0.9110684591546714 0.9179592585492107 0.9252175897974256 0.9330072371023649 0.9414866692518074 0.9508025065435624 0.9609533032172596 0.9676972153349535 0.8865219191791038 0.00011029248081207179 0.9999999999999999 0.9999999999999999 0.9999999999999997 0.9999999999999998 1.0 0.9999999999999991 0.9999999999999992 0.9999999999999984 0.9999999999999982 0.999999999999998 0.9999999999999979 0.9999999999999977 0.9999999999999964 0.9999999999999909 0.9999999995443009 0.9999942349478733 0.9991305593131412 0.9778008804596399 0.7819170079304248 0.006320081581442014 0.00027227073479789925 0.8325929806044553 0.8402353907824428 0.8478973656796646 0.8554301261759452 0.8627019945625822 0.8696584754532487 0.8763180457949515 0.8827511835302038 0.8890664208966677 0.8953984440438568 0.9019016589408343 0.9087452521557088 0.9161108803313854 0.9241899240809576 0.9331812909105656 0.9432839999332651 0.954565287494485 0.9629709456841651 0.8851763304100918 0.00011016621949497892 0.9999999999999997 0.9999999999999999 0.9999999999999994 0.9999999999999994 1.0 0.9999999999999991 0.999999999999999 0.9999999999999987 0.999999999999998 0.9999999999999976 0.9999999999999981 0.9999999999999972 0.9999999999999968 0.9999999999999797 0.9999999985491494 0.9999852986625787 0.9982674683602051 0.9650975859924075 0.727309160560931 0.005670580065095562 0.0002652076002089754 0.8322505249506054 0.8389279957436642 0.8454891513476385 0.851946300341763 0.8582315717635359 0.8643216626471796 0.8702406017891609 0.8760536125063065 0.8818600278783085 0.887787814258515 0.8939904037023503 0.9006450847003684 0.9079523238476758 0.9161356762571915 0.9254404664018792 0.9361292996704142 0.9483568526269074 0.9583282957753365 0.884386363157059 0.00011005981417787446 0.9999999999999996 0.9999999999999998 0.9999999999999994 0.9999999999999993 0.9999999999999999 0.9999999999999992 0.9999999999999989 0.9999999999999982 0.9999999999999981 0.9999999999999967 0.999999999999997 0.9999999999999963 0.999999999999995 0.9999999999999345 0.9999999954286438 0.9999630427557975 0.9966032682030171 0.9460545730520994 0.6636472887862894 0.004907774332365545 0.00025667759402424003 0.8318320039811217 0.8377752259214093 0.8434719862380783 0.8490654612150175 0.8545363351178442 0.859882120667595 0.8651343701313821 0.8703578834679825 0.875648809723503 0.8811332498080061 0.8869669920997222 0.8933373183372731 0.90046536262342 0.908609024246029 0.9180661147279787 0.929173097985697 0.9421927760542148 0.9536733496810461 0.8842251540711961 0.00010997533408938173 0.9999999999999997 0.9999999999999998 0.9999999999999991 0.9999999999999989 0.9999999999999992 0.9999999999999988 0.9999999999999987 0.999999999999998 0.9999999999999974 0.9999999999999959 0.9999999999999964 0.9999999999999956 0.9999999999999943 0.9999999999997321 0.9999999852245239 0.9999061185808339 0.9933334999824374 0.9172116072131717 0.5889637946515879 0.004058357499779727 0.00024698178983489363 0.8313251362802083 0.8366892281846782 0.8416757727284364 0.8465463233032645 0.8513201902027063 0.8560114535974365 0.8606576399481138 0.8653241260498261 0.8701055017118502 0.8751271361748725 0.8805476902653927 0.8865640216801169 0.8934177772143386 0.9014025268079827 0.9108725993032075 0.9222488158656442 0.9359246743532728 0.9488870621792139 0.8847428745170055 0.00010991422409097882 0.9999999999999998 0.9999999999999993 0.9999999999999991 0.9999999999999988 0.9999999999999987 0.9999999999999987 0.9999999999999982 0.9999999999999974 0.9999999999999966 0.9999999999999942 0.999999999999995 0.9999999999999942 0.9999999999999937 0.9999999999976363 0.9999999484606993 0.9997538324198889 0.9867401060895447 0.8731782815232214 0.5018048537349261 0.003159433697477749 0.0002363785430379448 0.8307111745687246 0.8356035597973761 0.8399852546390113 0.8442284676492233 0.8483864054572352 0.8524870923944919 0.8565727206787292 0.8607089262014352 0.8649882725552035 0.869534633792293 0.8745082872477161 0.880113875926358 0.8866114384045095 0.894329716814037 0.9036824216989928 0.915185258992863 0.9293867731159076 0.9438188080433594 0.8859464931407289 0.00010987687480036162 0.9999999999999998 0.9999999999999992 0.9999999999999989 0.9999999999999988 0.9999999999999981 0.9999999999999984 0.9999999999999976 0.9999999999999957 0.9999999999999962 0.999999999999995 0.999999999999995 0.9999999999999919 0.9999999999998032 0.9999999997604001 0.999999764573895 0.9993190597530344 0.9730203230650085 0.8058197646455534 0.40206608442518055 0.0022602497897342704 0.0002250749439975726 0.8299605198653366 0.8344569309511202 0.8383084284677028 0.841991268234272 0.8455900332665577 0.8491451511709224 0.85270266075216 0.8563275554828295 0.8601095729841595 0.8641693475432635 0.8686661136394819 0.8738088978095013 0.8798724956937388 0.8872183031067654 0.8963211345027424 0.9078008856813409 0.9223901071421525 0.9382745175751732 0.8877714195087854 0.00010986218404563356 0.9999999999999994 0.9999999999999989 0.9999999999999986 0.9999999999999989 0.9999999999999981 0.9999999999999981 0.9999999999999966 0.9999999999999942 0.9999999999999949 0.9999999999999926 0.9999999999999915 0.9999999999995826 0.9999999998619606 0.9999999612885665 0.9999922831767029 0.9979557189646809 0.9434464765540456 0.703825295697884 0.2926405857441503 0.0014277584003551432 0.00021317507251501357 0.8290240663053937 0.8331781004759096 0.8365545252891962 0.8397259021226 0.8428063676177521 0.8458478926738147 0.8488999552288653 0.8520260586060944 0.8553117581466287 0.8588723456956027 0.8628625671512287 0.8674909766448549 0.8730412830633822 0.8799026573214422 0.8886100918478272 0.8998982412130345 0.9147089375874518 0.9320060118355338 0.8900539497035774 0.00010986723134757776 0.9999999999999994 0.9999999999999986 0.9999999999999977 0.999999999999995 0.9999999999999851 0.9999999999999551 0.9999999999998693 0.9999999999996383 0.9999999999990018 0.9999999999970625 0.9999999999785364 0.9999999990258919 0.9999999289291377 0.9999953786172159 0.9997684181046549 0.9929761361892858 0.8773076159324673 0.5546666505789349 0.18185402699312567 0.000743452305396511 0.00020052815559529376 0.8278133676262361 0.8316627263304508 0.8346070928991173 0.8373049496113129 0.839898391674707 0.8424504704058798 0.8450136156395247 0.8476493122808703 0.8504376495781587 0.853485969616285 0.8569402866489646 0.8610021738044003 0.8659558887707499 0.872209210803096 0.8803539358464949 0.8912433612582721 0.9060792426812185 0.9246674242812145 0.8924438939750082 0.00010988699260492492 0.9999999999999993 0.9999999999915868 0.9999999999320719 0.9999999996836229 0.9999999989044063 0.9999999967774295 0.9999999913849834 0.9999999780310271 0.9999999446030368 0.9999998574627458 0.9999996088483804 0.9999986185785437 0.9999791527766735 0.9996550843910876 0.9950837043460176 0.9510779447781534 0.7243734150609218 0.3553816398738256 0.0856099918004175 0.0002809096835033369 0.00018642433646196712 0.8261476116212007 0.829717524496399 0.8322653007111759 0.8345219479837734 0.8366550910424105 0.8387383918423998 0.84082715228452 0.8429803707298916 0.8452714782926959 0.8477974671264366 0.8506907932891806 0.8541381157620093 0.8584110449020594 0.8639203188746843 0.871301410533106 0.8815481587293367 0.8960960857009644 0.9158895772826211 0.8944875092635002 0.00010991494726201152 0.9999999999998135 0.9999999089523828 0.9999994119029908 0.9999979388687589 0.999994383330959 0.999987036362835 0.9999726536118677 0.9999445867691314 0.9998890826547592 0.9997763523806525 0.9995383672287617 0.9990084567574419 0.9977284659182609 0.9878831813407459 0.9406066986353778 0.7725751094860098 0.43698640768315977 0.14919641014512794 0.02438587031495867 6.330364517846167e-05 0.00016901108273541552 0.8235214418782982 0.8268259135634174 0.8290068776265757 0.8308513647330541 0.8325495182193713 0.8341851137683484 0.8358166482383913 0.8375010229593441 0.839304891535982 0.8413132796511965 0.8436408066463982 0.8464497091046314 0.8499827057878412 0.8546201377171397 0.8610129840759405 0.8702746224923633 0.8843660050483049 0.9046495939640062 0.8950820684320011 0.00010994294436375482 0.9999999999280799 0.999954214115424 0.9997932407518391 0.999367762331615 0.9986683125836647 0.9976278858740099 0.9960392420416009 0.9935741643825179 0.9896586146117634 0.9832643246825296 0.9724655726040748 0.9534585537919071 0.9181124112041636 0.8460487748253256 0.6722419446099923 0.3971549425596644 0.1385055798696844 0.03006226501597757 0.0031739648987743206 6.332363842832165e-06 0.000143773216147941 0.8163395597634242 0.8193643838730801 0.821186561247449 0.8226294558718499 0.8239047217160139 0.8251106700327125 0.8263168070297449 0.827587042311707 0.8289909225425439 0.830609923380476 0.8325449331732812 0.8349304019763253 0.8379572334293046 0.8419414758928766 0.8473930118757086 0.8555842240068738 0.8686113384931476 0.8917520766563322 0.8934497736087508 0.00010996422952353668 0.9999999941936136 0.9951606459320055 0.9784092205007442 0.9593065361879737 0.9402602244444757 0.919067425652752 0.8944127136453002 0.8645853979358492 0.8275380559860608 0.7804488412620011 0.719462568453237 0.6393010068107584 0.5330618778595893 0.3931286233321062 0.21820352966698608 0.0833145175889207 0.017820972948866358 0.002471332889367617 0.00017628735379415667 4.4634489366440907e-07 9.799772637287007e-05 0.7464962550233031 0.7487707558966135 0.7499818079736468 0.7508303289061498 0.7515538615028686 0.7523140406425335 0.7532640491108322 0.7545674185823515 0.7564035801859138 0.758968652177201 0.7624749221071863 0.7671479135863851 0.773247446015273 0.7810236361371768 0.7911606498835534 0.8032436730100538 0.8255077935445198 0.8495260147027853 0.8834136291499155 0.00010996952207448197 0.9999998111718347 0.8146242947183819 0.00975159760365365 0.007380320728727595 0.008186107736143953 0.008042456271517475 0.00777996451205511 0.007310372036438235 0.006685175466554964 0.005913665390206165 0.005007631881480395 0.0039819832673102 0.0028694789506329118 0.0017396747091439086 0.0007635428751558859 0.0002369261858074569 4.209303136123034e-05 4.761570738712902e-06 4.448553959506884e-07 1.377576654401987e-09 3.7277723023206897e-07 0.0027031056604416596 0.004560726385695755 0.0050870814423725486 0.005080142809987842 0.005063901483226466 0.005018484548823816 0.004969701965977782 0.004918143891384943 0.004867663028158619 0.0048206414052878975 0.004779325646214476 0.004744273840982994 0.004714543004500056 0.004678020379503021 0.00465572838203985 0.004425253298912824 0.005231004497956382 0.8493156394636161 0.875213733933429 0.00010996690031546981 0.9999996527044863 0.8225483315376738 0.002459070460055306 0.00028893928742322627 0.00029137537435287945 0.00029020018576880085 0.00028620886928139793 0.00027996781470300715 0.00027184424591877784 0.00026209051586181565 0.00025091897681564924 0.000238533410069049 0.00022516591496887594 0.00021107231429431448 0.00019650879611167414 0.00018101188066998485 0.0001618631562160511 0.00013405086433733863 8.565901595225503e-05 3.061166627514408e-07 2.2791603500954665e-09 8.566176547556053e-06 1.95508103127904e-05 2.0648298236811708e-05 2.1634729940606883e-05 2.57724405858638e-05 3.73983009604511e-05 5.674761654551306e-05 7.846730124194009e-05 9.748709389360304e-05 0.0001123406980392457 0.00012354795843747056 0.00013195239003111714 0.00013822712484455572 0.00014281683841049466 0.00014599677282377025 0.0001475670707961291 0.0002979755509889275 0.8490786794767325 0.8411418460628148 0.00010993490226936848 0.9999994917510983 0.8384544291106981 0.8384102229561534 0.8383301446675913 0.8381982760465064 0.8380172524005439 0.8377825070963024 0.8374902453527524 0.8371343820612654 0.8367062498473561 0.8361929614634257 0.835574882084106 0.8348209034999993 0.8338787826213852 0.8326523788583321 0.830933313051248 0.8279914315773131 0.8170972382080757 0.715320398529003 0.0023630853403776493 7.0343739186600745e-06 9.089780797018091e-08 0.0001468458579582643 0.0033351572930946627 0.029070195993745534 0.12810629169976392 0.3247127095203222 0.537996820781538 0.676226577762614 0.7402983149921107 0.7683827494531483 0.7825218246651543 0.7906993585713844 0.7958603474994754 0.7992936996448481 0.8016440899499302 0.8032618396900834 0.8043500482956955 0.8049701583487883 0.7502577269439415 0.00010981009934323266 0.9999993547464696 0.8866759264808207 0.8573656458813257 0.8519882402178895 0.8487931401176297 0.8467490758820747 0.8452383797195294 0.8440263503094023 0.8429787324634964 0.8420138276897187 0.8410727303424748 0.8401051624365579 0.8390585532804674 0.8378650784370678 0.8364168661077445 0.8344957003921513 0.8313602071546049 0.8202344677279082 0.7176048809466943 0.003987841671448973 1.6056575906371938e-05 5.190681860152612e-08 9.818943945726548e-05 0.0024977664105266233 0.024150189473482655 0.11501227139860842 0.3069772316670103 0.5235173152035087 0.6658512753027019 0.7303833964382301 0.7563322821146469 0.7669567576151293 0.770538110600626 0.7699037921489302 0.7659749782116275 0.7587357515827496 0.7469581355971964 0.7291070039851603 0.6870526944923088 0.5515592441818761 0.00010942482441448766 0.9999992106401285 0.9117395072543437 0.8798348057614194 0.8662449865431514 0.8597919234526554 0.8556495684638403 0.8527170469415282 0.8504510472607884 0.8485821525834851 0.84694907476535 0.8454454511111508 0.8439908279984555 0.8425133505659074 0.8409327784183174 0.8391336164715784 0.8368925871030001 0.8334624136807253 0.822028231758944 0.7187529712129075 0.004450342750546604 1.6899409410688245e-05 4.999856572858574e-08 2.767740694424105e-05 0.0010548045250370177 0.014184747112768585 0.08550626422805611 0.26516754249502267 0.49104637564339115 0.6473319742314795 0.7177485549243737 0.7438793612480157 0.7522930422953221 0.752365197473534 0.7471016974737964 0.7372655781010782 0.7223194791193458 0.70028789983379 0.6655235811780009 0.5967400612360306 0.43812882696502364 0.00010874314187759746 0.9999990571018701 0.9294022129151169 0.8964069615994266 0.8798325352142857 0.8703904063948619 0.8643672590518794 0.8600724134450792 0.8567770115496867 0.854087598893458 0.8517738376360964 0.8496855690120104 0.8477142907315548 0.8457699628843285 0.8437608965468435 0.8415650505949775 0.8389560471124391 0.8351828725421458 0.8233950177824052 0.7195068707075877 0.004448566813051751 1.6999758704955975e-05 4.822231194067633e-08 2.0696824560487452e-06 0.00014080253460162576 0.004373367959787602 0.045883296516098 0.1974207554663995 0.434665943119786 0.6178944787425494 0.7021854530015996 0.7316115614708751 0.7392860759896391 0.7369272492215311 0.7281109636319362 0.7136060480506075 0.6925642359202061 0.6621351391584738 0.6146619368246122 0.5310654932299288 0.3656200278091193 0.0001077342599488338 0.9999988965766717 0.9413658627277753 0.9096840068276121 0.891465642682921 0.8802127124724219 0.8726481355084891 0.8671686157623123 0.8629312406980976 0.8594697767474755 0.8565010407471665 0.8538398583820344 0.8513538056933228 0.848936743629894 0.8464868147447112 0.843876270656823 0.8408765531487821 0.8367347019338802 0.8245709774610861 0.7201246342760208 0.004440222298030704 1.6807100883293845e-05 9.399316254809652e-08 1.1802867068208293e-07 1.4674214120716997e-05 0.0008628342996036308 0.015551443967720263 0.10626499123787828 0.34204407914959123 0.5691550594587736 0.6812278373377347 0.7191346204563324 0.7280853266329024 0.72451827812804 0.7132332224763827 0.6952496689976808 0.6695704334715791 0.6328240272357352 0.5771704585798051 0.4852988246679504 0.320867746303714 0.00010643970426418915 0.9999987304225355 0.9501038335114705 0.9202150383438062 0.9014813234794479 0.8890877616998415 0.8803984155180852 0.8739411324715212 0.868880077231076 0.8647160132315368 0.8611349730234752 0.8579267353393406 0.8549405325536092 0.8520570697250981 0.8491657651724159 0.8461341672768077 0.8427324221560003 0.8382075089149557 0.8256664940295398 0.7207867276393134 0.004407937873339511 1.6601151921389706e-05 0.0014956034128722259 0.0001524524734709056 2.3129162965782347e-05 0.00013491368516306993 0.004336267114418229 0.04680707013118059 0.21991896704270023 0.47969537313147337 0.6481236761297247 0.7048447994670095 0.7183617526048348 0.7151393579652456 0.7025447260612817 0.6822523786899807 0.6533428500709078 0.6123356989983212 0.5515369620670781 0.4554202503987761 0.2932533823128139 0.00010491855953141732 0.9999985598310228 0.9567401727942935 0.9288122983938495 0.9101262051087694 0.8971068427739572 0.8876228068052339 0.8803935242305805 0.8746325376108891 0.8698432249505321 0.8656989645063108 0.8619751600813443 0.8585082763277548 0.8551690831669636 0.8518402570819498 0.8483855319089266 0.8445747848227193 0.8396578862964945 0.826757227694304 0.7216670960934323 0.004374268240640652 1.8895144330368347e-05 0.06397895740266908 0.048808982453117405 0.016888977178280296 0.005300030608303472 0.0024454426941670077 0.017062011527868116 0.11563530933964566 0.34015759813868723 0.5650956956204262 0.6776409231689648 0.708985097957233 0.7084402943747182 0.695886490061946 0.6744634859412999 0.6436526465831736 0.6000801447760649 0.5363320086582277 0.43800276389964893 0.27772460977287716 0.0001032479303996887 0.9999983856023467 0.9620014283212341 0.9360082064117996 0.9177111695847456 0.9044113696756774 0.8943985280663423 0.8865770181147795 0.880234511354539 0.8748969023202747 0.8702397649446897 0.8660328777496137 0.8621054115034509 0.8583214904136912 0.8545587775873312 0.8506785225752217 0.8464516167126404 0.8411352329988394 0.8279101481736637 0.7229520173460927 0.004339962964025031 3.1073441441828105e-05 0.2823817411836233 0.258715196919811 0.20109349794301962 0.11162747730063151 0.0533917425954058 0.026529659628735682 0.05687803103123732 0.2022500787674826 0.426754038391001 0.6025131400713676 0.6824904313405997 0.7003089610422045 0.6922420891190694 0.6715227650660083 0.6400514718643768 0.5953505363136169 0.53024248403701 0.43088834579659624 0.2713726489219362 0.00010150839527154997 0.999998208306794 0.9663336878387032 0.9422059713698 0.9245029882813576 0.9111703887085649 0.9008366694435802 0.8925775215408155 0.8857612407020027 0.879948777484066 0.8748275379917728 0.8701689564019406 0.865799504572223 0.8615796791022938 0.8573839313240007 0.8530724266469121 0.8484184126411312 0.8426926395968145 0.8291940533399068 0.7248460299220435 0.004308674219618206 5.40547621358928e-05 0.540439124555091 0.5239808780354513 0.4858251684255311 0.4154562099868571 0.30028517861596016 0.18227662097065783 0.10928379307061227 0.1366209264471521 0.285983585109711 0.47748024367837405 0.614991405188023 0.6754249570983505 0.6855968974412104 0.6705635593434842 0.640579677158078 0.5961864776379306 0.5310799069441419 0.43162896858211863 0.27192526721257265 9.977502252732214e-05 0.9999980283139305 0.9700319695576023 0.9477008550817932 0.9307306780695571 0.9175508714496645 0.9070656320460029 0.8985027499728397 0.8913116752828611 0.8850940235066357 0.8795558651419076 0.8744756120070556 0.869680882408925 0.865030812538937 0.8603984413153257 0.8556440037270197 0.8505450901947759 0.8443936319711836 0.8306844432988589 0.727573106046016 0.004282878377835907 7.824901387553198e-05 0.6865183525018937 0.6761071712076019 0.6583127727654982 0.6299183660276874 0.5808774702423369 0.4714011810732602 0.32976801540598283 0.2289374896057868 0.23958947801172426 0.359672659960063 0.5097022678735106 0.616547342929771 0.6632255924008091 0.6661769901974264 0.6429499538703881 0.6008179180322665 0.5365823907868955 0.43734619133268093 0.2765916144756908 9.810777741902052e-05 0.9999978458287121 0.9732972908149665 0.9527162391153217 0.9365871687791767 0.923712079590931 0.913221071747588 0.9044760953745831 0.8970042426591909 0.8904502430628753 0.8845428277079114 0.8790711374168995 0.8738667902930144 0.8687894282329796 0.863711907925995 0.8584955414481162 0.8529238716440505 0.8463194768393963 0.832466718843955 0.7313728427866871 0.004265265594973322 9.730086455324489e-05 0.7439889943764575 0.7334245944341841 0.7211243637080895 0.707052658600356 0.689222659368346 0.6561807925717967 0.564713366033944 0.4351869939421391 0.33732462694752174 0.3347379698430745 0.42105915059036597 0.5329162899585266 0.6143336228822782 0.6480263051758431 0.6420000018886102 0.6072826647126678 0.5459488663991146 0.44759023017618743 0.2851556605735141 9.65553606945533e-05 0.999997660887541 0.9762709752537917 0.9574217192410295 0.9422341294184176 0.929801444886421 0.9194408255155879 0.9106320190254312 0.9029746837582951 0.8961570593921402 0.8899327474253543 0.8841037839588533 0.8785075325729673 0.8730054320017021 0.8674704139679076 0.861765138782941 0.8556802959514672 0.8485789200471777 0.8346411107404513 0.7364981572691038 0.004257562440094216 0.00011103343273435538 0.767925607109251 0.7542696200570081 0.7410412340494024 0.7288866661883273 0.7176193346190703 0.7060805179279273 0.676822669149029 0.6033267488539131 0.49826148119321645 0.4172310731024004 0.40912446887862625 0.46898567738818037 0.5505402047355483 0.6101504204456664 0.6299474396778794 0.6112178154343317 0.5574802737595626 0.46182035247662057 0.29755366726016813 9.515412506424091e-05 0.9999974733176583 0.9790540383557257 0.9619484695572882 0.9478069957947542 0.9359539189320183 0.9258617534926642 0.917112981170326 0.9093747125897943 0.9023771153264992 0.8958993141816745 0.8897573466558341 0.8837950068195474 0.877875407182549 0.8718707489350679 0.8656434553654976 0.858991243360766 0.8513253699813367 0.8373342698771179 0.7432079718577117 0.004260171659035506 0.00012089433602585284 0.7802023764321764 0.7619743945490437 0.7455502245225516 0.731682887033268 0.7205764691174589 0.7119958630993047 0.703626763760172 0.6780746924167091 0.6187567126786414 0.5366351204562392 0.47327650045199154 0.4638294853094384 0.5051169155358832 0.5633976404139432 0.6035871769959872 0.6070027265213233 0.5679275237641629 0.47898653306133016 0.3137932788155481 9.392830674203657e-05 0.9999972825512069 0.9817192285133475 0.9663977332218622 0.9534192326881517 0.9422920661687244 0.9326176782038236 0.9240682658733845 0.9163713182088464 0.9092969787450222 0.9026494465505862 0.8962584427557654 0.8899736335436802 0.8836581637423949 0.8771808083363626 0.870399726340912 0.8631144580036963 0.8547882943328104 0.8407198300285236 0.7517924830049474 0.004273334086536684 0.00012805016606877217 0.7874479378102306 0.7633223031684876 0.7423258480649445 0.725156187037373 0.7120796786768796 0.7030617622170734 0.6977375019053261 0.6908519697793027 0.669495850443227 0.6226267084972029 0.5600245101347673 0.5118869636613205 0.5031076678845067 0.5315131207098172 0.5713902885416933 0.5925438567012461 0.5733132576873783 0.4971576120895514 0.33380026844697697 9.289036043526753e-05 0.9999970799270851 0.9843184358808568 0.9708458872017737 0.9591632986038704 0.94892482747965 0.939837693213342 0.9316508797382376 0.92414559740863 0.9171289452155987 0.910428037763305 0.9038852884564923 0.8973543656677706 0.8906956139901749 0.8837691875292721 0.8764208518155845 0.8684404978251243 0.85932812037652 0.8450855084901482 0.7624963932845397 0.004284776372572022 0.00013322425408479133 0.7920748002498971 0.7604255587550666 0.7335009737808278 0.7117886971723425 0.6955086453549512 0.6846265970453441 0.6788526920158473 0.676478333585488 0.6720531721036738 0.655634920883095 0.6202080302113081 0.5738737280918226 0.5382124920684147 0.5308483949235268 0.5497958770015662 0.573426597984049 0.5717216197733233 0.5138003406954622 0.3572725576002394 9.204243745718716e-05 0.9999964276947884 0.986886935665125 0.9753486830446118 0.965113147586501 0.9559472159988157 0.9476435786688301 0.9400155106564239 0.9328912348181198 0.9261105136207171 0.9195213119418276 0.9129768097722688 0.9063318293318064 0.8994395811565831 0.8921444971667658 0.8842699008124786 0.8755747136526811 0.8655642197690848 0.8508905120139573 0.7760893254010836 0.004314639859945366 0.0001368460203994878 0.7951594298477104 0.7537258094700169 0.7190645842750885 0.6913714198655792 0.6706906286228296 0.656923043978979 0.6497136719707859 0.6480193929962917 0.6489259589437193 0.6479731350316331 0.6375605787834792 0.6131471509725925 0.580748788355119 0.5554679420083127 0.549670662121848 0.5605208349651738 0.5658823870046555 0.5270861822067665 0.38353207637498776 9.137757915607239e-05 0.9999775420182445 0.9894300209624205 0.9799270939470466 0.9713070448746515 0.9634212173936796 0.9561298122584374 0.9492985786477218 0.9427958128938037 0.9364900338356981 0.9302479102795135 0.9239311640636372 0.9173937401760651 0.9104770357409269 0.9030037355563707 0.8947578707560511 0.8854638747572463 0.874557407840057 0.8593435917111643 0.7917456465243139 0.004148457709469185 0.00013880328054617926 0.7972454472103131 0.7422065720741394 0.6972953861301666 0.6613666754238858 0.6346168736630783 0.6169123518575962 0.6075514305204256 0.6056583098962897 0.6080307573605026 0.613039419519153 0.6168251904430668 0.6137442677030536 0.6005191044008266 0.5809074610697034 0.564928183265089 0.5606106018891495 0.5619833937698635 0.537254499337726 0.41242371493239915 9.088331521547397e-05 0.9994245831943406 0.9914448014696454 0.9840896728811223 0.9772709175911956 0.9709021662212636 0.964895740067531 0.9591610398514133 0.9536014866875683 0.9481128233688858 0.9425803274311632 0.9368748881989062 0.9308486153866982 0.9243287733302596 0.9171053806746331 0.9089284224423737 0.8994077340789747 0.8881378061711787 0.8723750579438722 0.8192535721871905 0.0049782670312822 0.0002820278429166433 0.7986331241873007 0.7244436892608684 0.6627417385056282 0.6142930700515181 0.5795839459537515 0.5569886172626853 0.54501