# vtk DataFile Version 3.0
vtk output
ASCII
DATASET RECTILINEAR_GRID
DIMENSIONS 41 41 1
X_COORDINATES 41 double
0 1 2 3 4 5 6 7 8 9 10 11 12 13 14 15 16 17 18 19 20 21 22 23 24 25 26 27 28 29 30 31 32 33 34 35 36 37 38 39 40 
Y_COORDINATES 41 double
0 1 2 3 4 5 6 7 8 9 10 11 12 13 14 15 16 17 18 19 20 21 22 23 24 25 26 27 28 29 30 31 32 33 34 35 36 37 38 39 40 
Z_COORDINATES 1 double
0
POINT_DATA 1681
FIELD FieldData 1
Concentracao 1 1681 double
1.0 1.0000000000000002 0.9999999999999997 1.0 1.0 1.0 1.0 1.0 0.9999999999999998 0.9999999999999996 0.9999999999999918 0.9999999999997619 0.9999999999963877 0.9999999999695787 0.9999999998401826 0.9999999993587466 0.9999999970414772 0.9999999830949843 0.9999999146416374 0.9999996824151558 0.9999994801037166 0.9999992723665494 0.9999990900481143 0.9999988864988846 0.9999986288228031 0.9999981521698283 0.9999961038646025 0.9999804752934564 0.9998588893769043 0.9990903146426114 0.9953666018922473 0.9816089871869718 0.9424766446277718 0.8558925533221894 0.7060363274121303 0.5035737049126943 0.2927476061921023 0.12829657676285824 0.03732697409142536 0.005374478975830597 4.864931849432371e-08 1.0 1.0000000000000002 0.9999999999999996 1.0 0.9999999999999998 0.9999999999999996 0.9999999999999996 0.9999999999999991 0.9999999999999991 0.9999999999999984 0.9999999999999886 0.9999999999996593 0.9999999999930168 0.999999997320102 0.9999993411267423 0.9999653227287834 0.999300702522844 0.992185436986184 0.944833116240127 0.7706954089469951 0.7801216856063755 0.7994542586054194 0.8589395933395265 0.8897653917601102 0.9113825259265189 0.925905592506326 0.9363990165495177 0.9442336372710131 0.9501918138592668 0.9542226555882458 0.9542618766393017 0.9433627903747407 0.9065258491910178 0.8226138574998338 0.6771948740077054 0.48167377746071743 0.2792137874707047 0.12204711836367753 0.03543259479777396 0.005092910317151917 4.599002501605322e-08 1.0 1.0000000000000002 0.9999999999999997 1.0 1.0 1.0 1.0 0.9999999999999993 0.9999999999999991 0.9999999999999989 0.9999999999999788 0.9999999999991614 0.9999999999664576 0.9999999622445301 0.9999933037810754 0.9997445328807181 0.995939983183168 0.9681801932288974 0.7830419210608983 0.001645036421389607 0.0005249376136943729 0.7990262164928567 0.8221159711523778 0.849510491783866 0.8695393887799359 0.8854207926999671 0.8978240497627201 0.9077217884279992 0.9156166391175302 0.9212959925534974 0.9224612436585077 0.911910868218442 0.8747907281207657 0.791096143910103 0.6483216010909708 0.4590041121701106 0.2650301432020611 0.11552674675434076 0.03348859151934478 0.004811038349039909 4.330788096876007e-08 1.0 1.0000000000000002 0.9999999999999999 1.0 0.9999999999999998 0.9999999999999998 0.9999999999999994 0.999999999999999 0.9999999999999989 0.9999999999999983 0.9999999999999326 0.9999999999962689 0.9999999997743663 0.9999997007688293 0.9999623709917718 0.9989192243050189 0.9871670735256294 0.9143153746628574 0.6202291829334103 0.0008888721211998262 5.533099887040621e-05 0.7981254181524238 0.8146884511936078 0.8317781232274355 0.8479260044064991 0.8615365908291881 0.8730132157988155 0.8826071292285363 0.8904879203531245 0.8961020579846786 0.8967074564524308 0.8846554294442708 0.8452449484864207 0.7599558600091524 0.6187277400029099 0.4354332888419662 0.25031974587601435 0.10886855648094101 0.03155246525994415 0.004539268869616603 4.068317000625723e-08 1.0 1.0 1.0 1.0000000000000004 0.9999999999999999 0.9999999999999996 0.9999999999999997 0.9999999999999994 0.9999999999999993 0.9999999999999967 0.9999999999996 0.9999999999709394 0.9999999984520526 0.9999982532964582 0.9998431747285337 0.9966276928698172 0.9689272780932334 0.8392277151417132 0.48776982670642915 0.000716986547074585 5.330635877824389e-05 0.7967048201524676 0.8094784068920339 0.8225001366329109 0.8348116525921004 0.8459772092302755 0.8557643354628371 0.864204043545042 0.8711608313961681 0.8757002881102869 0.8745098599413238 0.8594329733882313 0.8161265849850134 0.7280417060658411 0.5879718540934495 0.4110537042700643 0.23536851053897045 0.1022818032837168 0.02970579909187839 0.004292029302538226 3.821974410461737e-08 0.9999999999999998 0.9999999999999997 1.0 1.0000000000000002 0.9999999999999998 0.9999999999999993 0.9999999999999992 0.9999999999999991 0.9999999999999991 0.9999999999999694 0.9999999999956282 0.9999999996532984 0.9999999818192249 0.9999914994542358 0.9994569966575528 0.9912045365712974 0.937269214144633 0.7487275171152232 0.3720719425115965 0.0005031141638534409 5.072744391068623e-05 0.7946953025100578 0.8051591939217386 0.8155367947235914 0.8254104043329326 0.8344721580237207 0.84257459394315 0.849588346671338 0.8551396737549121 0.8578443715345412 0.8537377492120387 0.8342477519479413 0.7858042899240927 0.6943801133352339 0.5558200963232205 0.3861237680597016 0.2205518017903569 0.09601577226482316 0.028044492910009013 0.004086435568254822 3.603423350920453e-08 0.9999999999999999 0.9999999999999999 0.9999999999999997 0.9999999999999998 1.0 0.9999999999999991 0.9999999999999992 0.9999999999999984 0.9999999999999959 0.9999999999993605 0.9999999999237621 0.9999999946843474 0.9999997499795763 0.999962952855713 0.9983268767885125 0.9796210900959559 0.8872410636194262 0.6416592324068766 0.27106044198848445 0.00033583149692011327 4.762302125731346e-05 0.7919291877322467 0.8007915188387211 0.8093503253533193 0.8174049087471017 0.8247721451188279 0.8312977895511507 0.8367468455281392 0.8404519032651754 0.8404874160139107 0.8322391037759577 0.8070279764805186 0.7526662875072274 0.6581368731809081 0.5222117627874465 0.36101934229520743 0.2062855444126554 0.09033071358536757 0.026667069396297524 0.003941292592629733 3.424757139705912e-08 0.9999999999999997 0.9999999999999999 0.9999999999999994 0.9999999999999994 1.0 0.9999999999999991 0.999999999999999 0.9999999999999979 0.999999999999824 0.9999999999780179 0.9999999982642641 0.9999999109795337 0.9999968180710419 0.9998474677253951 0.995205943379422 0.9564202940272271 0.8122881164557285 0.5203377813145328 0.18445745586503584 0.00020566400168400834 4.3989695471441655e-05 0.7880970090835449 0.7957717379300009 0.8029224564714564 0.8095025287815679 0.8153592556540122 0.8202876441506818 0.8238618262321081 0.8250145980513601 0.8212231352589721 0.8074210527853086 0.7753918988514629 0.7150245563238716 0.6185606901014971 0.48716107693044197 0.336116358069997 0.19295871232537498 0.08547024303678553 0.02567517275187424 0.003878363515696922 3.298718700613727e-08 0.9999999999999996 0.9999999999999998 0.9999999999999994 0.9999999999999993 0.9999999999999999 0.9999999999999992 0.9999999999999964 0.9999999999998193 0.9999999999861303 0.9999999991031284 0.9999999574720134 0.999998562629871 0.9999649387349302 0.999377186052486 0.9868124666429209 0.9121114173645014 0.7059864233199217 0.39010953486921923 0.1140508590769922 0.00011289733620132905 3.979860570346691e-05 0.7824824466358045 0.7891928301310615 0.7951122734132415 0.8002837008269528 0.8045195511507975 0.8074654691803651 0.8083903754418994 0.8057527062772868 0.7965611979498178 0.7757881270625139 0.7364385733189016 0.6710320778849778 0.5748909530880439 0.45064411489923284 0.311685677065206 0.18085961721282323 0.0816411941283726 0.02517452418581758 0.003924965716314789 3.2395578584134566e-08 0.9999999999999997 0.9999999999999998 0.9999999999999991 0.9999999999999988 0.9999999999999977 0.9999999999999744 0.9999999999993434 0.9999999999755197 0.9999999990216605 0.9999999654645133 0.9999990330285966 0.9999795089432512 0.9996775669280739 0.9963145735207288 0.9642207356100254 0.8317112941133329 0.5653129168000882 0.2611009644260257 0.06151379701566611 5.330636954945468e-05 3.500583148584279e-05 0.7731078296877165 0.7788923425337736 0.783469439316524 0.7869043963254994 0.7888873283088143 0.7888210456852932 0.7856226164574661 0.7774042996410329 0.761147988821631 0.7325971471938834 0.6866669792740068 0.6186371557275777 0.5262350313755049 0.41240913725136585 0.28773137354186856 0.1700946381397157 0.07899272380742592 0.02527910945759826 0.004118811995584352 3.2646412276875475e-08 0.9999999999999981 0.9999999999999966 0.9999999999999928 0.9999999999999682 0.9999999999997246 0.9999999999957897 0.9999999999094334 0.9999999977750573 0.9999999469280139 0.9999989004738744 0.9999815186603681 0.9997577254215643 0.9975925196324005 0.9824707278417448 0.907713317257328 0.6975494425995128 0.3975533746656589 0.14789505165067515 0.027278875340215416 2.0434336693789068e-05 2.957830684423184e-05 0.7545551687801891 0.7591828636159054 0.7618779953063547 0.7626647082583605 0.7610698548157032 0.7562810337207412 0.7470519428176046 0.7315889993279162 0.7075212159593826 0.6720347342341014 0.6222129019936066 0.5556499901005265 0.4714469158239009 0.37178747521006145 0.2638217353401275 0.16047665887511117 0.0775746196446639 0.026114575481650096 0.004515910817546467 3.396817747744557e-08 0.9999999999999502 0.9999999999999192 0.9999999999997197 0.9999999999979742 0.9999999999747033 0.9999999995715896 0.9999999920641034 0.9999998607509282 0.999997871759559 0.9999729368805402 0.9997216954049062 0.997737274206798 0.9858213187786995 0.9338385719330656 0.7797345111796175 0.5018481190538413 0.2275482256160651 0.06542028422576944 0.009132264080239535 5.87338614382342e-06 2.356359391404525e-05 0.7148553944464159 0.7177866346639574 0.7176745534883425 0.7145183490900381 0.7078037082853403 0.6967749002594807 0.6804713726089021 0.6577855038678465 0.6275352092683003 0.5885543508323056 0.5397410603009477 0.4801273563333374 0.4091612300741012 0.3275579118127068 0.23891166407351747 0.1513876142310641 0.0772624819914372 0.027813384755200746 0.00520178599875085 3.667048121023736e-08 0.9999999999993913 0.9999999999689377 0.9999999995227585 0.9999999958340184 0.999999973169642 0.9999998541659574 0.9999992531961425 0.9999935807333599 0.9999373654786488 0.9995066913734524 0.9968690698277928 0.9840898287060047 0.9364749523622059 0.806374897459105 0.5627741499047759 0.2814312129808037 0.09583593963312245 0.02035396546578658 0.0020707386821462604 1.1472199158993323e-06 1.7213707567560718e-05 0.6359656158064216 0.6366353761949142 0.6330738190857653 0.6253947565258052 0.613335234100818 0.596592041591597 0.5749268430136363 0.5482328390709402 0.5165399680597643 0.4799306424267384 0.4383543335468185 0.391405016953259 0.33825508536455356 0.2780662805663024 0.21125386310455993 0.14157634792262835 0.07761748274394474 0.03046384601902443 0.00630645188413409 4.116296436584702e-08 0.9999999999957356 0.9999999531491603 0.999999481921603 0.9999968507896542 0.9999857952639927 0.9999465502592458 0.9998191254354564 0.999419334512239 0.9981509355961532 0.9936761869504829 0.9752737321278026 0.9203108793474544 0.792425403921743 0.5718719344762854 0.308965768055365 0.10983236336394375 0.02632822743642138 0.003931649778794703 0.00027989548541181844 1.3509821226361636e-07 1.1088336952408828e-05 0.505222608373514 0.5037054836182029 0.49744079101244376 0.4867949288910225 0.4719657355941325 0.4532690389886736 0.43120591814889025 0.40643942567673197 0.379704798099505 0.3516323608526685 0.32251593072562657 0.29204917751630805 0.25913481425777357 0.22193776701417642 0.17858729566371148 0.1290121886118404 0.07757895484809443 0.03402106922822399 0.007995055040340772 4.7877936894083927e-08 0.9999999999652107 0.9999934627116815 0.9999489736312643 0.9997714287283473 0.9992445765432019 0.9979012345083592 0.9947738758548689 0.987823010330724 0.9726887957736954 0.9399536675386112 0.8696608852388473 0.7316318394256002 0.5225888199796136 0.2916538303174783 0.11465555942338454 0.028262454851436913 0.004456518805723456 0.00044541900006310557 2.1354791275631124e-05 9.200152155877544e-09 5.967642259070953e-06 0.3353625346574652 0.3327648239989765 0.3261468435098296 0.316063344989128 0.30303354854895287 0.2877258861378238 0.27093839822556204 0.2535263244534205 0.23630033636717873 0.21989119467319848 0.20460427087295707 0.1902446060761095 0.17590549626922777 0.15976193667811978 0.13905700718207822 0.11095287053887348 0.07526199848819795 0.03783926623796266 0.010494125432775486 5.7206116057012676e-08 0.9999999994208869 0.9997587528850066 0.9985302950706919 0.9951484127153726 0.9876715475844717 0.9737688158810635 0.9499097221843081 0.9103953801927959 0.8469430580872632 0.7486289788523642 0.6048631803228665 0.41816551027732474 0.22642700023939297 0.09223391829499389 0.025307095272905873 0.004185916032862335 0.00040220877739731615 2.5583254931136208e-05 7.968828795260224e-07 3.382390327297974e-10 2.4829167232920165e-06 0.17046668624406872 0.16828998383151872 0.16372245083992223 0.15723855353515465 0.14933077888558355 0.14056388996224484 0.13154733049605571 0.12287439369802498 0.11507559424727698 0.10856754728779736 0.1036151987638147 0.1002663076774057 0.09822384655905145 0.09655587404410108 0.09331822211021668 0.08500772339688531 0.0674433736497641 0.040846345060406686 0.013583988875140366 6.843231358601913e-08 0.9999999927531831 0.9958888001050633 0.9826253506294991 0.9510203789369834 0.9044534361450066 0.84429748369712 0.7670053270765932 0.6702905377464503 0.5531999265183951 0.4186929433395989 0.27692655164025126 0.14831809014124647 0.05804463890760883 0.01557053223598704 0.0028673275241533802 0.00031137016127239913 1.7409749668162992e-05 6.858785891100316e-07 1.3743919837867377e-08 1.1712262755954637e-11 7.018577197602594e-07 0.05800774674660672 0.056975891396376904 0.05505266006263924 0.05246701314516858 0.049463273909138974 0.04629996940867214 0.04324217824746191 0.040533698409692474 0.03839720778624957 0.037032518849202216 0.036628512667697975 0.03737841760830996 0.0394523990598018 0.04294525348009049 0.047400346962817225 0.05166175689355142 0.05106398394332049 0.03876026847804535 0.017322168932445543 8.061934528741796e-08 0.9999999439947355 0.9594288867985522 0.833462524266833 0.7021025641503025 0.5882644513340431 0.48130370230848873 0.37970518823685945 0.283592965559388 0.19577200223854008 0.12040083370290344 0.06232225239719572 0.024906600448496165 0.006845338644769841 0.0011909633749374116 0.00012527930777742193 9.011786468627802e-06 3.3178386802519666e-07 8.492805935254504e-09 1.1685951927692666e-10 9.385143890195022e-13 1.0034636822669123e-07 0.009814387476002712 0.009588947916452274 0.009208840834184226 0.008720271090473927 0.008175715392611431 0.007629059669544629 0.007132870913063374 0.006736009639589623 0.006485976997713203 0.0064349411601472535 0.006651437461873731 0.007238721263098078 0.00836746438296303 0.010291720174436966 0.013515782983477075 0.017865109618961282 0.026215392050505708 0.02831857089554011 0.017787344383780438 8.877490305424894e-08 0.9999997289393233 0.7837257104825762 0.0018661719206546322 0.0010846215190976687 0.0009395829522825117 0.000711622778935016 0.0005166639232257788 0.0003481118634267697 0.0002133982114059869 0.00011464285150680436 5.1071434355722274e-05 1.7425985975648254e-05 4.101825197599134e-06 6.226962641774245e-07 5.828988482484742e-08 3.816610092842361e-09 1.44429961985059e-10 6.631084741494285e-12 4.713091580016672e-13 1.0150082962797377e-15 4.290675743656574e-11 2.7793374920470813e-06 4.532971988426729e-06 4.786297664660059e-06 4.443415677398261e-06 4.0632357771985166e-06 3.6660479923920693e-06 3.3034023017099565e-06 2.9978459013919995e-06 2.7682412382014684e-06 2.6294650746301948e-06 2.5980148553884177e-06 2.6967178424191497e-06 2.962230036526086e-06 3.4346446217944137e-06 4.2214659555660454e-06 4.941199560404694e-06 7.692326751229538e-06 0.026568683014060974 0.01822193629095796 9.508105508615003e-08 0.999999542016478 0.7926269347654848 0.0005673342960441214 5.9274080683664545e-05 5.725102766389192e-05 5.4636452221530456e-05 5.1478045592923484e-05 4.7788756180533165e-05 4.3554818921407456e-05 3.874322988926597e-05 3.331855737277971e-05 2.7292311639954635e-05 2.0826813187847385e-05 1.4355222774048551e-05 8.578963085787101e-06 4.211861243659978e-06 1.5740273474281562e-06 3.943178973570568e-07 4.9414415217301636e-08 2.017099160277621e-11 2.910000129756107e-14 9.928699969131565e-10 2.1709827238932418e-09 2.1333862350174776e-09 1.9592093251240863e-09 1.7384983627417277e-09 1.52014626527797e-09 1.3227716418204308e-09 1.1627903044784354e-09 1.0869541496267097e-09 1.2919049092098343e-09 2.411779234671758e-09 5.886811337502386e-09 1.3971572232302497e-08 2.8901234843853715e-08 5.145689682493802e-08 7.974735198300009e-08 2.928125769038152e-07 0.02459474223444556 0.016126465989121506 9.820060527697325e-08 0.9999993511743366 0.810936561533899 0.8105481681034058 0.8097983469942172 0.8086176579576926 0.8069554392179872 0.8046877910325606 0.8016007513653963 0.7972385527630373 0.7903796943873513 0.7774612609253306 0.7496102852369866 0.6909055227051917 0.5846836592044555 0.4306874593494721 0.25883827740916315 0.11681196855437284 0.03476347655302477 0.00508638835797994 1.3621227239494892e-06 4.650537907846849e-10 1.1283138112483706e-12 8.972567370341626e-13 9.834765315439367e-13 9.94974701951654e-12 4.043070997108902e-10 1.0563702434422953e-08 1.7456149179133614e-07 1.9072220275900731e-06 1.434869318715993e-05 7.720881016845108e-05 0.00030810937706585 0.0009446405573560635 0.002303108893130112 0.0046158260732729285 0.007844506093456036 0.01161657882807146 0.015345278262781556 0.018915902793172762 0.013085162542880632 9.837581776835078e-08 0.9999991868358623 0.8671163427321418 0.8324050118489993 0.8254835335600785 0.8207321787488256 0.8169011907060547 0.8131403690898333 0.8089615800409595 0.803741610416302 0.7961148103802939 0.7823034043039618 0.7531200653876897 0.6924301911810772 0.5838841420180463 0.4281651204880739 0.2560247884648253 0.11493579221374667 0.03402687660561178 0.004951539865440256 2.2135476910153313e-06 1.0133520613515158e-09 4.109845444981376e-13 1.1106874585712887e-14 6.784479182642586e-14 4.950172169612784e-12 2.394147466909338e-10 6.791189994047246e-09 1.19659345651768e-07 1.3749700709120472e-06 1.0757795778470343e-05 5.963826040631539e-05 0.0002432307732865465 0.0007566145990742695 0.0018586005277791578 0.003725716987391116 0.00628175820415733 0.009114723640896315 0.011678613881566408 0.01249628878868888 0.008786216963454184 9.378999808049783e-08 0.9999990111069161 0.8961893921859394 0.8583100752170423 0.8416951918315333 0.8331164849049743 0.8268067869135298 0.8213529316510945 0.8158857043384481 0.8095859092725188 0.8008704631093373 0.7856032358590426 0.7541219902022597 0.6901648805178001 0.5782759557381515 0.42086468136535915 0.24968005413728317 0.1112431993178894 0.03270575329247097 0.004729645502578642 2.3259929072880294e-06 9.916303780925714e-10 3.9130229205820716e-13 2.3192307795962396e-16 8.447119929748668e-15 1.1105408315099279e-12 7.41349959038472e-11 2.6807059456668118e-09 5.668683861271694e-08 7.469541384854202e-07 6.4767421808396175e-06 3.8772752553174156e-05 0.00016737666253649185 0.0005424013913502402 0.0013698811459564707 0.0027918215885068183 0.004731530723606347 0.006840957816631451 0.008484409188005184 0.008738593429077306 0.005985639397594039 8.492266135372907e-08 0.9999988175458606 0.9166027979872307 0.8772677838867358 0.8570279714571184 0.8448569678045007 0.8362736812900473 0.8291402897947279 0.8223449165813443 0.8148489529857863 0.8047752394848102 0.7874664549394826 0.7526588023971826 0.6841640686959941 0.568090600887878 0.40924847779624274 0.24034191384179304 0.10610631838573603 0.030952315084816124 0.004446358319522419 2.146242061580882e-06 9.06220108341468e-10 3.4175145682908466e-13 4.097438126558987e-16 1.5849794468690842e-16 6.24091550976691e-14 9.241892508671881e-12 5.696509913828854e-10 1.734633670653913e-08 2.952711816089578e-07 3.0760260952156065e-06 2.1038967030952653e-05 0.00010008508726871657 0.0003479525403866051 0.0009236242840847995 0.0019458854097173016 0.003364178300330817 0.004889141681436703 0.006021053677830094 0.006050604194872106 0.004088984651188783 7.255200217644305e-08 0.9999985889927079 0.9303254375028285 0.8923128683230102 0.8699715540511095 0.8555323800993135 0.8450062835981376 0.8363317389480296 0.8282136761157447 0.819401187154361 0.8076146511886966 0.7875082485497674 0.7481912673787637 0.6739504834547783 0.5532091115664404 0.3936428147596552 0.22852176250365494 0.09991174712412838 0.0289216881806569 0.004129798123684468 1.9472565281569406e-06 7.990473175896203e-10 2.9392775485240637e-13 2.92333363428602e-15 4.7591356523485734e-17 1.7377267544421573e-15 4.2545327679406053e-13 4.1257715235184535e-11 2.7889955807727587e-09 7.670811090804324e-08 1.0931165028660206e-06 9.266372716692746e-06 5.126745125141056e-05 0.0001984591709685436 0.0005685404116755786 0.0012630858417899756 0.0022608866662818293 0.003351661206555058 0.0041498268987976905 0.004147410364115387 0.0027846472994124617 5.865336474136132e-08 0.9999980903546215 0.9402431674487409 0.9040712363462193 0.880901760207867 0.8649205938657322 0.8528689103415424 0.842802102917612 0.8333510584481827 0.8230067298099213 0.8089457747799023 0.7850053641913223 0.7398406096062434 0.6588600556599624 0.5335372857418744 0.3745025780857506 0.2148486733471332 0.09308541504953848 0.026778839923288496 0.003808447801021287 1.7394719886287215e-06 6.93034711993068e-10 6.266448216831892e-13 9.504284433864821e-15 2.800104656517881e-16 5.3198890807378783e-17 1.9282896703554793e-14 2.996718506712817e-12 2.990514340499401e-10 1.1472118754666345e-08 2.571139558833333e-07 3.116895614203269e-06 2.180314341230529e-05 9.907372928605036e-05 0.0003173401075157138 0.0007620515884686059 0.001438619855422845 0.0022068953368692503 0.002784843464379836 0.002800806979653695 0.001881577434070244 4.511205770712151e-08 0.9999941459310061 0.9476538886246775 0.9134669696642207 0.890067770460331 0.8730732627946494 0.8597830229985863 0.8484122554429692 0.8374959411704418 0.8251658825763858 0.8079019368511853 0.7787443256687514 0.7263683764449677 0.6381421979770086 0.5091197593848101 0.3524665905965398 0.20003779138288108 0.08607221024916671 0.02468343635263161 0.003508782036473581 1.5476741595757342e-06 5.964334792613731e-10 1.8597165986381175e-10 8.482281159104469e-11 4.410637905230347e-12 2.0336015806920482e-13 1.1476351410417717e-14 2.0836369497012447e-13 3.16813033393924e-11 1.7124355899976377e-09 5.1432466210235176e-08 8.056202559282713e-07 7.2201164637168175e-06 4.194176535673098e-05 0.00015820918402725554 0.00042481828196907654 0.0008658002100130242 0.0013982621751282632 0.0018224219486223385 0.0018650780287915196 0.001261381791886881 3.328267031013128e-08 0.9999529395774726 0.9533528698601471 0.9210423035514546 0.8977168871689971 0.8799833953891082 0.865570547996183 0.8527795463683255 0.8399549449149397 0.8247255147091623 0.802823296497611 0.7668065287011714 0.7061661481212674 0.611065876321446 0.48019795870155374 0.32831096643066204 0.1848317546118136 0.0792934748592231 0.022777457711707215 0.003253883555721229 1.3822874529587103e-06 5.140336898511913e-10 9.939667031906507e-09 5.890898378250725e-09 1.6890208519542224e-09 1.212671300298635e-10 1.0275880949910753e-11 9.268803917367547e-13 3.232396475571542e-12 2.461189079098601e-10 9.967297854270314e-09 2.0110242483184964e-07 2.243618285511533e-06 1.5782861316779915e-05 7.013527711275865e-05 0.00021592059278930815 0.0004907244594638412 0.0008528527929584355 0.0011663880405392854 0.001228621518453075 0.0008415925891132368 2.3779141231490027e-08 0.9996219524542259 0.9575633150131353 0.9268981835857852 0.9036779242238044 0.8851895550170188 0.8694262466039755 0.8546492135623021 0.8388807749374414 0.8191898832373967 0.7907837877637034 0.7464235860358746 0.6773561078401976 0.5770318719800688 0.4472163144410068 0.3028776858072377 0.16992188975876263 0.07310996478033278 0.02118123600640173 0.003063953562309038 1.251239939666263e-06 4.487912252801811e-10 2.1903345390195314e-07 1.4619291008248154e-07 6.296451672329773e-08 1.4763118115650877e-08 1.795114519913878e-09 2.3571748746885134e-10 3.137224381739117e-11 3.6936530188226064e-11 1.8318592977569303e-09 4.780428254971267e-08 6.628883819217739e-07 5.625675133193367e-06 2.9386652194750062e-05 0.00010370793981540259 0.00026364548411215847 0.0005000528614899666 0.0007289833616134839 0.0008010844234428927 0.0005603581252759327 1.6618130758943137e-08 0.997700647382053 0.9592284777751647 0.9297930976641385 0.9063426909214451 0.8865910709322866 0.8686324381218773 0.8505724781646642 0.8300898146718039 0.8039025343703534 0.7672825461645844 0.7140856393478647 0.638020383240386 0.5356791451233075 0.41074492068881124 0.27693606290548045 0.1558599152305398 0.06779892147886993 0.019994969823191287 0.002958640857563946 1.1597922544614963e-06 4.0945551474908627e-10 2.607559659647847e-06 1.8681882990689417e-06 9.924502988782448e-07 3.6909625551294003e-07 7.947921578486838e-08 1.425782072589448e-08 2.5920321892107595e-09 4.6381150551951684e-10 3.9071429207594863e-10 1.0706393404610855e-08 1.8506666964481594e-07 1.8960304832720213e-06 1.1652323109199525e-05 4.727551533163702e-05 0.00013523885564414325 0.0002825578884744383 0.00044410304037189387 0.0005151736098242545 0.0003720625906934378 1.1470667201049904e-08 0.9895268267946693 0.9537691325863336 0.9248584780114967 0.9003317385337427 0.8781559799079354 0.8564497423203176 0.8332076573637777 0.8060119919273264 0.7717629932521085 0.7265692671371995 0.6660776428853717 0.5865579443389666 0.48692287456983324 0.3713335150968829 0.2510305710170979 0.14298479369346823 0.06354394427250463 0.019305579704923075 0.0029610746207097438 1.1128704312225418e-06 4.488257580226487e-10 1.9190509795816683e-05 1.4399792110577627e-05 8.696689979268433e-06 4.133000045303619e-06 1.4428293648158219e-06 3.413579046497483e-07 8.135583153978016e-08 1.88654363040973e-08 4.24069230286485e-09 3.107903549608393e-09 4.871170881387795e-08 6.031720436135913e-07 4.376798695970023e-06 2.0510119615063363e-05 6.647706252844846e-05 0.00015448143500998895 0.00026487232181197966 0.00032851070322297715 0.00024799811887561923 7.89499316749676e-09 0.9634321023367011 0.9296514403851055 0.9004117264190775 0.8736947567783486 0.8477089858242268 0.8207220120781513 0.7909152355807186 0.7562634277456572 0.7144727261517024 0.6630304175268195 0.5994927533270145 0.5221115435789088 0.43093042813775373 0.3293161385412841 0.2253140163978546 0.13134399317746032 0.06041802442858927 0.019196503212445985 0.0031046163315457944 1.1170748360473924e-06 7.850014500758479e-10 9.530823815275493e-05 7.37492870441949e-05 4.843364634613119e-05 2.6772332318731815e-05 1.2096114991711356e-05 4.168019450025091e-06 1.2526260178094244e-06 3.650581354652129e-07 1.0170907979393508e-07 2.731030917898058e-08 1.8575637252908054e-08 1.821163256882386e-07 1.557039657683673e-06 8.480104636957607e-06 3.1388288874533816e-05 8.195862530019725e-05 0.00015519805325297354 0.0002086296057424156 0.00016695658099321505 5.467482093040226e-09 0.8996193607609156 0.8676597636040281 0.8378328788102042 0.8086053757621433 0.7785994898475824 0.7465369726505401 0.7111933788425906 0.6713729177469363 0.6259055534856907 0.5736585586261902 0.5136132196413571 0.4450725746733149 0.36815490420267083 0.28469715045497845 0.19943668202119189 0.12061552433745194 0.05835372719651065 0.019756656181706283 0.0034427149060405845 1.1831453506491854e-06 2.0096070122924808e-09 0.0003411850789057992 0.0002691867601199871 0.00018691237870893443 0.00011402919279984139 6.037952067834746e-05 2.694005201035747e-05 9.960013224260663e-06 3.5391331715321856e-06 1.1968214915091634e-06 3.840512430975019e-07 1.1913654196820904e-07 8.379454772077422e-08 5.31593370269498e-07 3.339728416968002e-06 1.4238202251487767e-05 4.223678515351886e-05 8.950008875803511e-05 0.00013236665235696207 0.00011409781812460993 3.841741057877738e-09 0.7783852102867429 0.7492920026413236 0.720261008226287 0.6903546642379143 0.6588208808286978 0.6250715144962447 0.5886781212818687 0.5493426085369719 0.5068482080892069 0.46097378689420554 0.4114105390251388 0.35773983005015036 0.29960496187079 0.23725141882034034 0.17252989320361056 0.1100155202963332 0.057067504374983966 0.02106287745480234 0.0040663608359443534 1.3297403956515564e-06 5.188281584545015e-09 0.0009292535203264566 0.0007406009669323485 0.000533035159388819 0.00034712812733680607 0.00020377325856311303 0.00010652495776430561 4.824157552421804e-05 2.0327406546592357e-05 8.129576928007e-06 3.0841137255118933e-06 1.1095967080146669e-06 3.9002422874075697e-07 2.848389811101006e-07 1.2798212117490393e-06 6.192977771462204e-06 2.1101587804636372e-05 5.076540670795633e-05 8.398994662802862e-05 7.944495929588782e-05 2.7596703932062634e-09 0.5982643959970322 0.5742452969006568 0.5491222441982111 0.5225513888518888 0.494395144192163 0.4646957572480568 0.43364658702120124 0.4015258850852948 0.36860583567554067 0.335027335384048 0.30067993077160493 0.26510236340163973 0.2275012050480121 0.18701876608937262 0.14342049393153958 0.09824313063554879 0.055888706615442756 0.023141133977083377 0.005111385876724432 1.5771332490761363e-06 1.1538130778702368e-08 0.0020167208657101074 0.0016092999277488515 0.0011827072461764675 0.0008031091213436002 0.0005045887468928674 0.0002922397483407751 0.00015434230014291664 7.515143837725367e-05 3.4722874289800364e-05 1.524794149528272e-05 6.3727298187079674e-06 2.5351397849190117e-06 9.99717073916399e-07 7.695257901633108e-07 2.6567791212701507e-06 1.0178960047706623e-05 2.8199673305230342e-05 5.320345061132887e-05 5.6452710063422307e-05 2.0405596856235742e-09 0.38947322523444555 0.3726146469654051 0.35453239448729545 0.33526913654639295 0.315037527608237 0.29418457467434034 0.27313396728445316 0.25231165803798195 0.2320702162789334 0.2125945339435623 0.19380663615583252 0.17527833483480726 0.15617058263609107 0.13527302272201494 0.11129045973444861 0.08360375302380094 0.05356829269103877 0.025685561707324566 0.006843323447884738 1.977853975373253e-06 2.1689347823162515e-08 0.0036296667724052788 0.002873266405636698 0.0021268134006994827 0.0014804393649414645 0.0009713214699129228 0.0006016452905905995 0.00035081538451844956 0.00019196538903461732 0.0001000673882133056 4.985516000812422e-05 2.379891673169051e-05 1.088776426140081e-05 4.769274211616652e-06 2.1068918322066304e-06 1.7368171355904176e-06 4.894886674893521e-06 1.5243869035680441e-05 3