# vtk DataFile Version 3.0
vtk output
ASCII
DATASET RECTILINEAR_GRID
DIMENSIONS 41 41 1
X_COORDINATES 41 double
0 1 2 3 4 5 6 7 8 9 10 11 12 13 14 15 16 17 18 19 20 21 22 23 24 25 26 27 28 29 30 31 32 33 34 35 36 37 38 39 40 
Y_COORDINATES 41 double
0 1 2 3 4 5 6 7 8 9 10 11 12 13 14 15 16 17 18 19 20 21 22 23 24 25 26 27 28 29 30 31 32 33 34 35 36 37 38 39 40 
Z_COORDINATES 1 double
0
POINT_DATA 1681
FIELD FieldData 1
Concentracao 1 1681 double
1.0 1.0000000000000002 0.9999999999999997 1.0 1.0 1.0 1.0 1.0 0.9999999999999998 0.9999999999999996 0.9999999999999989 0.999999999999999 0.999999999999999 0.9999999999999989 0.9999999999999989 0.9999999999999657 0.9999999999897602 0.9999999993945956 0.9999999845325368 0.9999997923686407 0.9999996260904008 0.9999994572064307 0.9999993133735376 0.9999991620109455 0.9999990006192322 0.9999988317304268 0.9999986567149128 0.9999984767702768 0.9999982926843907 0.9999981049651457 0.9999979138779089 0.9999977194602148 0.9999975214659964 0.9999973191060351 0.9999971005804229 0.9999962960879341 0.9999730039933555 0.99932819423252 0.9869328687533158 0.8385398452737498 8.32774366833102e-05 1.0 1.0000000000000002 0.9999999999999996 1.0 0.9999999999999998 0.9999999999999996 0.9999999999999996 0.9999999999999991 0.9999999999999991 0.9999999999999984 0.9999999999999982 0.9999999999999984 0.9999999999999986 0.999999999999998 0.9999999999992704 0.9999999866756029 0.9999950072640905 0.9996244185180311 0.9875958321373637 0.8073762049217087 0.8155645018289029 0.8320737434219535 0.8821702524824058 0.9082080595695025 0.9265568428527703 0.9389912612898702 0.9480862695388476 0.9550145780066062 0.9605345478756908 0.9651131592638347 0.969059928512586 0.972585705761112 0.9758382516077807 0.9789223831692977 0.9819122559600519 0.9848583073499512 0.9877718013286211 0.9900729137024127 0.9806542547014381 0.8353985325047314 8.308611262738788e-05 1.0 1.0000000000000002 0.9999999999999997 1.0 1.0 1.0 1.0 0.9999999999999993 0.9999999999999991 0.9999999999999989 0.9999999999999984 0.999999999999998 0.9999999999999976 0.9999999999999968 0.9999999999921587 0.9999998924092487 0.9999684151941789 0.9983387968409554 0.9460107480103195 0.008129648096074693 0.0021261568773577096 0.8320179472053637 0.8516936088654867 0.8750183338096336 0.8922196660040106 0.9060080329168743 0.9169621587816641 0.9259348436028082 0.9334862794298053 0.9400427491460618 0.9459186949662625 0.9513515735811168 0.9565229449520944 0.9615721069268438 0.966604732564595 0.971698848326281 0.9768870337039515 0.9816056735882763 0.9747894537325589 0.8325718665642724 8.290716109628712e-05 1.0 1.0000000000000002 0.9999999999999999 1.0 0.9999999999999998 0.9999999999999998 0.9999999999999994 0.999999999999999 0.9999999999999989 0.9999999999999984 0.9999999999999982 0.9999999999999984 0.9999999999999976 0.9999999999999969 0.999999999953008 0.9999994997955542 0.9998910975386188 0.9950486158559818 0.8994590261240415 0.005841564498945024 0.00024680465308228643 0.8319092892768182 0.8460788342865293 0.8608603515435883 0.8749478246403138 0.8870147461262703 0.8974227067709282 0.9064388616338586 0.914397358227653 0.9215865805237321 0.9282566157342341 0.934619186244407 0.9408525766423265 0.9471069298410608 0.9535065163662388 0.9601516456692991 0.9670982337954132 0.9738062976705112 0.9692942763916005 0.8301191633981266 8.274252339198598e-05 1.0 1.0 1.0 1.0000000000000004 0.9999999999999999 0.9999999999999996 0.9999999999999997 0.9999999999999994 0.9999999999999993 0.9999999999999992 0.9999999999999989 0.9999999999999987 0.999999999999998 0.9999999999999957 0.9999999997892828 0.9999982708809979 0.9997082583711547 0.9897895279741021 0.8547053765209298 0.006183827386844962 0.000246432087707497 0.8317342701247394 0.8427148174011349 0.8541049406361791 0.8650763969146271 0.8752492425788071 0.8844582698118502 0.8928116138287141 0.9004705786986325 0.9076257606556541 0.914467251391728 0.9211774150309721 0.9279264824562723 0.9348716498025084 0.9421554185731962 0.9499043433173932 0.9582054944581623 0.9665584057232729 0.9641260860869068 0.8281329066460169 8.259482174269515e-05 0.9999999999999998 0.9999999999999997 1.0 1.0000000000000002 0.9999999999999998 0.9999999999999993 0.9999999999999992 0.9999999999999991 0.9999999999999991 0.9999999999999986 0.999999999999998 0.9999999999999982 0.9999999999999973 0.9999999999999889 0.9999999992052355 0.9999949225874094 0.9993381130367912 0.9822452672048286 0.8069748112517058 0.005785698129908245 0.00024336863474768987 0.8314952481655754 0.840530827215966 0.8497324813997942 0.8587397122227403 0.8672982075042512 0.8753235806089738 0.8828353571371884 0.889930247992282 0.8967419851195431 0.9034242678268648 0.9101408409677799 0.9170588432300942 0.9243462790956293 0.9321684937796684 0.9406848537095874 0.9500242512880092 0.9597457478473078 0.9592406744362216 0.8267353315418551 8.246724477521528e-05 0.9999999999999999 0.9999999999999999 0.9999999999999997 0.9999999999999998 1.0 0.9999999999999991 0.9999999999999992 0.9999999999999984 0.9999999999999982 0.999999999999998 0.9999999999999979 0.9999999999999977 0.9999999999999964 0.9999999999999649 0.9999999972874187 0.9999864490272555 0.998630264718307 0.9712233929826034 0.7542159596971825 0.005304144392462328 0.00023831926690594452 0.8311859194585037 0.8388826859262993 0.8465962343378157 0.8541760384834797 0.8614897608868125 0.8684828185098489 0.875174092990896 0.8816348199924317 0.8879745720190683 0.8943292877283824 0.9008548038569397 0.9077218794026515 0.9151138619062381 0.9232238716466075 0.9322519458484027 0.9423800610123482 0.9532490704729162 0.95458762239868 0.8260698848322038 8.236335197780496e-05 0.9999999999999997 0.9999999999999999 0.9999999999999994 0.9999999999999994 1.0 0.9999999999999991 0.999999999999999 0.9999999999999987 0.999999999999998 0.9999999999999976 0.9999999999999981 0.9999999999999972 0.9999999999999968 0.9999999999998875 0.9999999911975458 0.9999655377118699 0.9972874155203456 0.9550370687541224 0.6941941387503721 0.004684794772133375 0.0002317628325483383 0.830799876291361 0.8375238460059824 0.8441280809071212 0.8506237101997707 0.8569425386799846 0.8630614179113194 0.8690048721759689 0.8748389117695955 0.8806639114203061 0.8866091052105862 0.8928293978583384 0.8995037380512815 0.9068344135930015 0.9150469006723333 0.9243878854675113 0.9351039735241952 0.9469430000851371 0.9501053639367818 0.826293106183234 8.228677113052785e-05 0.9999999999999996 0.9999999999999998 0.9999999999999994 0.9999999999999993 0.9999999999999999 0.9999999999999992 0.9999999999999989 0.9999999999999982 0.9999999999999981 0.9999999999999967 0.999999999999997 0.9999999999999963 0.999999999999995 0.999999999999616 0.9999999717599497 0.9999136490327526 0.9947239641766971 0.931052063566356 0.6251104685818261 0.003980140049584301 0.0002240298391247481 0.8303268442563096 0.8363102809084865 0.8420434348633404 0.8476685527435742 0.8531662227795712 0.8585342581098404 0.8638048170539941 0.8690435642209359 0.8743477584243233 0.8798448438615215 0.885692170474318 0.8920787923148421 0.8992277999214487 0.9073991761179024 0.9168923238359546 0.9280291515831747 0.9406926472119854 0.9457137274827423 0.827560250076974 8.22407824748112e-05 0.9999999999999997 0.9999999999999998 0.9999999999999991 0.9999999999999989 0.9999999999999992 0.9999999999999988 0.9999999999999987 0.999999999999998 0.9999999999999974 0.9999999999999959 0.9999999999999964 0.9999999999999956 0.9999999999999943 0.9999999999981705 0.9999999070623687 0.9997815009995817 0.9897515913480649 0.8952532360369161 0.5453567021808038 0.0032175245173512892 0.0002153534320485668 0.8297515889070399 0.8351505816843788 0.8401679668949524 0.8450644645194829 0.8498594353813154 0.8545673851332178 0.859226557338738 0.8639033021438879 0.8686934298067676 0.8737237687483207 0.8791546626209302 0.8851848644708257 0.8920581063825683 0.9000701783938103 0.909577205316999 0.9209873085617402 0.9343491446945295 0.9413046307991655 0.8300049120808277 8.222776350677096e-05 0.9999999999999998 0.9999999999999993 0.9999999999999991 0.9999999999999988 0.9999999999999987 0.9999999999999987 0.9999999999999982 0.9999999999999974 0.9999999999999966 0.9999999999999942 0.999999999999995 0.9999999999999942 0.9999999999999826 0.9999999999655612 0.9999996693522416 0.9994296953726103 0.979892236720193 0.8416306784017127 0.4541834584222214 0.0024339227663632943 0.0002059163993430621 0.8290506736362799 0.8339732205935532 0.8383809260740034 0.8426451548061377 0.8468192762343072 0.8509318634015864 0.8550259559738317 0.8591683050050427 0.8634528420412105 0.8680050558711427 0.8729870576605776 0.8786055241519047 0.8851226926415283 0.8928696220329924 0.9022619754603308 0.9138049572312513 0.927744748728252 0.9367300433566014 0.8337122926266501 8.224852930714724e-05 0.9999999999999998 0.9999999999999992 0.9999999999999989 0.9999999999999988 0.9999999999999981 0.9999999999999984 0.9999999999999976 0.9999999999999957 0.9999999999999962 0.999999999999995 0.999999999999995 0.999999999999986 0.9999999999943424 0.9999999965053035 0.999998447189167 0.9984305084700634 0.959838661645353 0.7616585862103533 0.3526696716982683 0.0016765822872221324 0.00019583289411661208 0.828186673353065 0.8327087966227047 0.8365819116257546 0.8402813459468674 0.8438919447008885 0.8474548285456314 0.8510170443029326 0.854644891945631 0.8584296791191078 0.8624938607515882 0.866998699722703 0.8721554150402462 0.8782411090412247 0.8856195390584111 0.8947675568172286 0.9062969330453056 0.9206862626413301 0.9317869347138202 0.8386811070757001 8.230162053823275e-05 0.9999999999999994 0.9999999999999989 0.9999999999999986 0.9999999999999989 0.9999999999999981 0.9999999999999981 0.9999999999999966 0.9999999999999942 0.9999999999999939 0.9999999999999925 0.9999999999999428 0.9999999999888838 0.9999999978004908 0.9999996515102295 0.9999614425970836 0.9953109887330018 0.9179856577047489 0.6447412261774632 0.2454104128630113 0.001005434821802162 0.00018508967724515754 0.8270963963023417 0.8312717388879268 0.8346655912182667 0.8378494471378054 0.8409378139247551 0.8439835316331802 0.847037314810705 0.850164232421541 0.8534516975936732 0.8570171121337681 0.8610175210265691 0.8656638820463395 0.8712423298648567 0.8781444060297972 0.8869071114248807 0.8982592883829621 0.9129404033491776 0.9262022117702784 0.8447909899742831 8.238273311807674e-05 0.9999999999999994 0.9999999999999979 0.9999999999999948 0.9999999999999798 0.9999999999999242 0.9999999999997514 0.999999999999251 0.9999999999978553 0.9999999999939085 0.9999999999814548 0.999999999740738 0.9999999880448323 0.9999994054675477 0.9999746704010535 0.9991836101734248 0.9839997155594642 0.828863386163204 0.4822535122644003 0.14253422629565526 0.00048591028943259626 0.00017340379082424483 0.8256628863822513 0.8295289274127526 0.8324864816970485 0.8351927776721669 0.8377904228935779 0.8403435892559408 0.8429062795821948 0.845541936702282 0.8483329447239388 0.8513891981322078 0.8548594249410432 0.8589479314184536 0.8639415981923393 0.8702505747461294 0.8784685259019371 0.8894447834549447 0.9042298226977149 0.9195926461406165 0.851664167207157 8.248411511491244e-05 0.999999999999999 0.9999999999568309 0.9999999996479022 0.9999999983472 0.9999999942423876 0.9999999829779266 0.9999999542875088 0.9999998829386506 0.999999703606793 0.9999992341241147 0.999997887827075 0.9999924811161529 0.9999080383919298 0.9988470338307526 0.9879071967707506 0.9122103767529645 0.6391543253354902 0.2817067424003666 0.06023888295619616 0.00016452275968964922 0.00015995707010093638 0.8236324750407733 0.8272137064617959 0.8297698386120782 0.8320304107482956 0.8341637902012602 0.8362452104032152 0.8383321385793479 0.8404862381730331 0.8427840251729024 0.8453258550495635 0.8482476481940934 0.8517394009762296 0.8560756788742426 0.861669630202471 0.8691582829069403 0.8795327661525686 0.8941227547402778 0.9115164875393389 0.8588799737941515 8.259544323040068e-05 0.9999999999995437 0.9999997767961114 0.9999985582169361 0.9999949471534831 0.9999862317269296 0.9999682251900558 0.9999329805273466 0.9998642122031494 0.9997282192519792 0.999451932952446 0.9988680809538601 0.9975644542245463 0.9943904724669809 0.9744819503028164 0.8967608077562 0.6788148685620731 0.33905240263155917 0.1019558391092155 0.014617150772273824 3.19096645998175e-05 0.00014289065353356045 0.8201421330370824 0.8234492184585511 0.8256300548438239 0.827469956120364 0.8291607266582829 0.8307891436991031 0.8324177977344103 0.83410854686476 0.8359336603366782 0.8379840055015391 0.840379766792286 0.843287834312166 0.8469541323944276 0.851760096825762 0.8583565917990358 0.8678523039511351 0.8821392249102744 0.9008934496258096 0.8648194334303217 8.270294171145144e-05 0.9999999998867275 0.9999280569639472 0.9996756603395375 0.9990102537863951 0.9979195690058448 0.9963035663813932 0.9938479944782187 0.9900607962875603 0.9840908138834255 0.9744357049558493 0.9583343195533988 0.930465311205258 0.8798083301007278 0.7796731136786363 0.5739817186090788 0.3019153432252045 0.09089201070887594 0.01719668902138967 0.0015842534388690536 2.7033625835712413e-06 0.00011798496157640959 0.8078772848297163 0.8108699255519626 0.8126559641879301 0.8140564517638968 0.8152910636161648 0.8164705133289999 0.8176810018688456 0.8190059347773766 0.82053658097402 0.8223762350832049 0.8246450506034235 0.8274914989520079 0.8311107169689097 0.8358147092944977 0.8420855796887268 0.8511947309617081 0.8651283487265147 0.8879939506835963 0.8694420046575426 8.279528360335844e-05 0.9999999928494061 0.9940633844443257 0.9735773705416859 0.9502791268857328 0.9271533971147232 0.9015602690572073 0.8719825302075438 0.8364848972721821 0.792832864599793 0.7380489693321342 0.668268243370532 0.5785994324039792 0.4635509334012505 0.31955511604466996 0.15840786189503034 0.053391141182710385 0.009886332052821165 0.0011925152534424436 7.415053952517006e-05 1.644116356409198e-07 7.488953871788154e-05 0.7024635583831347 0.7045527914162462 0.7056032467457536 0.7062942943687692 0.7068876705262509 0.7075873946822346 0.7086030861634522 0.7101669972086678 0.7125379411058044 0.7159999541082345 0.7208590144998975 0.7274345510655679 0.7360820154888303 0.7471101157309832 0.7613828651358532 0.7780258175315244 0.8075596580841343 0.8366273271241139 0.8615317352551992 8.285644613595674e-05 0.9999998087212515 0.8135240201081166 0.008661826225220283 0.0064763556300251445 0.0071083581779256624 0.006909154816332892 0.006607023240577742 0.006127340959996857 0.005516907348733763 0.004787430883430208 0.003954857418908062 0.0030412063608543714 0.0020883882936583624 0.0011748941667946793 0.00046321845285155085 0.00012796588790487613 1.9894865922780074e-05 1.976052693594654e-06 1.6336742403844043e-07 4.5303845455979734e-10 2.3932920057338976e-07 0.002065407515231711 0.00348416533201577 0.0038847162295392243 0.0038771562804873474 0.00386246107957643 0.003825997628621222 0.0037881122461737127 0.00374998016469474 0.0037153436127336944 0.003686892085419119 0.0036672756491741253 0.0036578838033398432 0.0036589926766400064 0.003661760883698408 0.0036841730131826097 0.003543224870026425 0.004262188920332071 0.8363009997414131 0.8551525993676949 8.290220559825458e-05 0.9999996492854614 0.8214895840014264 0.0022038043295251044 0.00025528390435896903 0.00025634866215209915 0.00025444321647451554 0.00025023685219406145 0.0002441970840823956 0.0002366306113098287 0.00022774955088360988 0.00021773093259240783 0.00020673657410805876 0.00019492767367027585 0.00018243030424208012 0.00016922028309805147 0.00015444453851438207 0.0001356178326270812 0.00010828327908679379 6.373060285932887e-05 1.9081829135722689e-07 1.2312902984204392e-09 5.499759523169586e-06 1.2543588743116592e-05 1.3204864240469468e-05 1.3570629193752931e-05 1.5333967622389976e-05 2.1604960923792694e-05 3.4372082831582504e-05 5.1317190287719145e-05 6.799946990259909e-05 8.190794968222816e-05 9.27556479605013e-05 0.00010106177347328045 0.00010738711964494476 0.00011214456288692334 0.00011561151159448756 0.00011769110229928972 0.0002415572162231032 0.8359235001099016 0.8216348792210872 8.29145208020191e-05 0.9999994873346112 0.8374861602641912 0.8374364146389397 0.8373458900454285 0.8371981799151451 0.8369957664127189 0.8367334255733015 0.8364064123746421 0.8360071924607532 0.8355249316298744 0.8349434173691406 0.8342376950931983 0.8333676075462542 0.8322640772810704 0.8307946152632693 0.8286377957481292 0.8243153206312718 0.8044005413893496 0.6582731412465853 0.0017578918971620314 4.3849348632556e-06 4.8066647549429046e-08 4.3678711932846725e-05 0.0012077626502713954 0.012891142576693352 0.06964420032844601 0.2142445902615899 0.4181828932437495 0.5889155551659206 0.6853904203355744 0.731241348702883 0.7542187500160262 0.767290954506562 0.7754568413464016 0.7808544785334406 0.7845346441479644 0.7870617133220699 0.7887617362747887 0.7897235738289899 0.7326237458189796 8.28412057457394e-05 0.9999993494563687 0.8859926751895313 0.8565003623374463 0.851081174236746 0.8478520709735372 0.845775584258678 0.8442296049186453 0.842977106706578 0.8418816039384154 0.8408587870429524 0.839846133556482 0.8387878381892588 0.8376221053336582 0.8362640927809474 0.8345692982045373 0.8322056052932303 0.82767760564896 0.8074717928968599 0.6603010357097497 0.002965817823488436 1.0002525405115753e-05 2.666518245439974e-08 2.8289167931939455e-05 0.0008778166256382154 0.010421830936630908 0.061089203452518705 0.19893333447973086 0.40209977533371793 0.5761192376379352 0.6741000656925226 0.718569332419365 0.7383663033861981 0.7470063453008806 0.7494804567574381 0.7475992886288813 0.7417738580694588 0.7310070850233567 0.7139143438244425 0.6725239034600768 0.5384250040568175 8.252393072381202e-05 0.9999992043988697 0.9112024875441951 0.8790982763502458 0.8654163632194086 0.8589097820760465 0.8547224487306504 0.8517462340443546 0.8494335322910006 0.847511876259791 0.8458168650834107 0.8442382156869161 0.8426897341215995 0.8410901744091502 0.8393421064104633 0.8372931355185086 0.8346050945309755 0.8297698848850076 0.8091962774653025 0.6612398003208168 0.0033082047150286473 1.0517907819985392e-05 2.6239025816075864e-08 7.263892539288457e-06 0.0003410271588722347 0.005693550244874827 0.042797500987779506 0.16438790929004352 0.36658972944542956 0.5518544969364357 0.6580900239437185 0.7045395987493015 0.7228983317052294 0.7283833898518827 0.7264319437865672 0.7187935242881428 0.7054029107025146 0.6845606365950726 0.6508282405212037 0.5833446155842649 0.42746714400848357 8.193734063151267e-05 0.9999990497992209 0.9289672275211106 0.8957633768964528 0.8790772607635935 0.8695627195725567 0.8634828863107847 0.8591359135194044 0.8557874737956009 0.8530402517337344 0.8506603592815806 0.848493434344373 0.8464250434224149 0.8443556055946554 0.842176087044415 0.8397272681456442 0.8366667660441346 0.831474866070895 0.8104854072569473 0.6617917542977115 0.003304652039339698 1.05682079939078e-05 2.545991470514009e-08 4.5697506595924004e-07 3.826883014212562e-05 0.001522783908409247 0.020538390641693736 0.11276717308921379 0.3079364187140882 0.5126256736188737 0.6363618584623673 0.6894075946219713 0.7084319346645475 0.7120950577298502 0.7069162941483442 0.6948256749537539 0.6755261560811573 0.646492778763341 0.6003659876335671 0.5185376066201417 0.35647305842638094 8.105570463862161e-05 0.999998888099772 0.9409986294585839 0.9091131358022435 0.8907710251932548 0.8794332847455132 0.8718017282866168 0.8662622517247105 0.8619656441770102 0.8584413128728254 0.855402171344914 0.8526586167924647 0.8500721389679267 0.8475269356953242 0.8449036758104971 0.8420371869172673 0.8385817562574598 0.8330078844805895 0.811585481387341 0.662234421707737 0.003296118358052163 1.0435231498165214e-05 4.103723630515688e-08 2.3461006206122493e-08 3.384650622607734e-06 0.0002553139783137472 0.005933175193528358 0.05225419102852622 0.22068633178706606 0.4497910149120957 0.6049695118241 0.672141858803236 0.6948807088031366 0.6983297816846662 0.6911751614055797 0.6759062248690866 0.652197715064688 0.6170743606942435 0.5630413756807919 0.4732947705236612 0.3125596227335381 7.991833707852367e-05 0.9999987206451355 0.9497848649278849 0.9196998926483564 0.9008367318262331 0.8883494944550001 0.8795848787422877 0.8730605827144627 0.8679344166481702 0.8637025215681692 0.8600468135576501 0.8567524851838793 0.8536625777767611 0.8506480571647405 0.8475807851726271 0.8442907131495274 0.8404298763281266 0.8344624243217188 0.8126248654925936 0.6627889229047211 0.0032701588975478976 1.0281241812049199e-05 0.0006279735324010697 5.306153317174854e-05 6.797987295506918e-06 3.445600117081356e-05 0.0014392451140001054 0.020217300100407867 0.12653191932610802 0.348593154033516 0.5545218919660192 0.6498078432846874 0.6814632900590119 0.6869095782686095 0.6791991735620848 0.662040507715902 0.6353858005852695 0.5962420938719608 0.5373140428521713 0.443596907572459 0.28535059900677384 7.85809018244305e-05 0.9999985486085525 0.9564566605455112 0.928340742124421 0.9095224861130731 0.8964032450632965 0.8868371878209513 0.8795346537504383 0.8737030538710139 0.8688411161786144 0.8646180122160753 0.8608044860328928 0.8572307658669979 0.853757863299626 0.8502509003465801 0.8465359705505106 0.8422643223871362 0.8359004165511886 0.8137028993505355 0.6636851576540316 0.0032440861629552294 1.1177499296932826e-05 0.03366706915206444 0.02475293602631474 0.007328165919697141 0.0019985416076993413 0.0007809209884753596 0.006545437218075533 0.06004929095856013 0.22644693708559638 0.4552019893960306 0.6078632201411149 0.6660928310548371 0.6771523545177278 0.6706891725242655 0.6530093656212592 0.62482126877696 0.5833809378892933 0.5217414510310417 0.4260496093038687 0.26989965910371794 7.711503137558646e-05 0.999998372763017 0.9617449005097761 0.9355712761900309 0.9171410311271113 0.9037368204392044 0.8936364005875427 0.8857361044557928 0.8793178716398857 0.8739030614839335 0.8691630652800727 0.8648630094247556 0.8608258532991856 0.8569060254133544 0.8529637359955914 0.8488227646488214 0.8441356366414806 0.8373778109560472 0.8149147317988313 0.6651783925125029 0.003219088033560565 1.7553703999074873e-05 0.1850582039416802 0.16560480137707814 0.12060264875594569 0.05822844288953921 0.02489005866228475 0.010919615941152141 0.02635003553744117 0.1234462598931971 0.3205650300530109 0.5161254525004352 0.6268523619111532 0.663108177933284 0.6641737042185808 0.6483439965553541 0.6200053602859235 0.5777600665216157 0.5150064911375857 0.41851342634647065 0.263353290790937 7.559479121728007e-05 0.9999981936407611 0.966098337790615 0.9417971174687056 0.9239607385320455 0.9105202961303456 0.9000943137566635 0.8917514342335066 0.884854686087115 0.8789607042018385 0.8737528244181194 0.8689979181668949 0.8645163505954114 0.8601590782134437 0.8557833483706676 0.8512123216973868 0.846102296402944 0.8389550770420583 0.8163608787251815 0.6675540678360758 0.0031985855609118915 3.2629151705724035e-05 0.42510152380689553 0.40672245411709845 0.3647906568759552 0.2919180862714058 0.19135040870627443 0.10651062356723526 0.05772687353542457 0.07543520246517647 0.19766548701426898 0.3856885949776999 0.544343948357957 0.6273160129882599 0.6518057227695364 0.644425062687779 0.6187587922091203 0.5773667957253505 0.5149288436181928 0.41857656807181187 0.2634862550838827 7.408816777189453e-05 0.9999980115574907 0.9698137645564091 0.9473153073059777 0.930212010533479 0.9169216637188737 0.9063401339944294 0.8976890682106788 0.8904131468833602 0.8841099555952655 0.8784816865660581 0.8733023568621664 0.8683936719218459 0.8636054935070312 0.8587940887777666 0.8537835439723105 0.8482374544877143 0.8407033883711331 0.818149975579415 0.6711281555366784 0.0031852100611769168 5.172263403066427e-05 0.6062851549608889 0.5934764392095678 0.569797649534078 0.530863677218509 0.46522722845825165 0.3529648083302238 0.22988817964297364 0.14629200255484975 0.15486438892915325 0.26911075507979393 0.4283580973596314 0.5548518287008225 0.6197471151042415 0.634622521409559 0.6182060451128822 0.5802356051744612 0.5192183118346432 0.4234089426715155 0.26758606471258517 7.264818638961622e-05 0.9999978266401426 0.9730934204094294 0.9523505934217392 0.9360889630872077 0.9231011713456094 0.9125103697598337 0.9036731950194465 0.8961124817447604 0.8894692667344528 0.8834686619536506 0.8778956620866097 0.8725762632696571 0.8673612296871975 0.8621072976749277 0.8566409702402377 0.8506366168841728 0.8427111760081469 0.820398435995435 0.6762412076452062 0.0031818359256658353 6.864484418908366e-05 0.6932496284391818 0.6815878499691989 0.6665072616214831 0.6472605101813833 0.62040884556834 0.5719691861064105 0.4685445040931406 0.33935843558765355 0.24469108768487355 0.24191151836933822 0.3325727416126638 0.45835753013951835 0.5581738412047257 0.6076642869258236 0.6122033146098431 0.5839158999630324 0.5269082283264714 0.43252085494314196 0.2754294057942843 7.131697271689654e-05 0.999997638807199 0.976079504124897 0.9570736294969965 0.9417542788324429 0.9292071778314464 0.9187437258278127 0.909839128884403 0.9020893073382714 0.8951791912570402 0.8888590858874544 0.8829272076280149 0.8772156913948214 0.8715776476242945 0.8658707932997388 0.8599248781002192 0.8534283440169462 0.8450927669792812 0.8232309798894288 0.6832542584619137 0.003190713947648479 8.155793456909661e-05 0.7312945261691363 0.7171886381675098 0.7027318661243565 0.6883213367959452 0.6732998830849546 0.6555191093942442 0.613891086537531 0.5267497084518797 0.41268077839613915 0.32649356259483053 0.3177391689805726 0.3849196236834594 0.4813194908537554 0.5580444821233926 0.5921510689981148 0.5832512796240834 0.5359130469589176 0.4452531205216202 0.2869282046502058 7.01249807180894e-05 0.999997447669531 0.978873670474799 0.9616164265977637 0.947344257746044 0.935375486164052 0.9251779109558697 0.9163301960260537 0.9084962480177827 0.9014033434470282 0.8948276957513365 0.8885819267370259 0.8825051002716986 0.8764527172831242 0.8702829554228965 0.8638278373383701 0.8567919281688446 0.8480045011123454 0.8267878608090452 0.6925360991929473 0.0032131709811321876 9.10819646289802e-05 0.7505252455645244 0.732114520702176 0.7150630396931325 0.7000136873018593 0.6869978724114248 0.6754646308036204 0.6619390886093306 0.6260910568308256 0.5537785037987896 0.4596390205397113 0.3880891564701712 0.37747442617119836 0.4264418632352589 0.4990359397864139 0.555151461706171 0.5719302086341612 0.5423639145936408 0.4602884557577785 0.30202646513071335 6.909136551164133e-05 0.999997250232645 0.9815491309895935 0.9660808750148266 0.9529730764986916 0.941729402651133 0.9319475174334495 0.9232964950023025 0.9155011570334509 0.9083292139355873 0.9015823935611037 0.8950874788789088 0.8886900140064253 0.8822464145409697 0.8756129272264688 0.868620468053106 0.8609865178642256 0.8516752837783125 0.8312388152652479 0.7044928063352691 0.0032505077807919295 9.812231644571992e-05 0.7617431468902414 0.7375811661600848 0.7162545604750749 0.6983919754791574 0.6841746973446124 0.6734388665078133 0.665592344014161 0.6537086708917782 0.6234377288694402 0.5645930741150484 0.48970042719203843 0.4328509534938126 0.42274136437905685 0.45848563453808455 0.5118674659617731 0.5480697723211676 0.5416994526592525 0.4752497959104952 0.32050923855610225 6.822439412800502e-05 0.999996934551501 0.9841579801325782 0.9705436810153257 0.9587335774352848 0.9483782850624188 0.9391820891282856 0.9308915179136064 0.9232856600076822 0.9161696744005474 0.9093686872679336 0.9027227245812162 0.8960820384288567 0.8893012884367567 0.8822298920959775 0.8746901585517665 0.8664027145948251 0.8564605832886938 0.8368527313192419 0.7194431838254015 0.003294075769093815 0.00010332668199125865 0.7688632177093186 0.7372864449060366 0.7102313785574531 0.6881197062336382 0.6711160585573315 0.6591185262376383 0.6517400506671069 0.6468271633337416 0.6376695738215817 0.6132737964548137 0.5669371877901523 0.5090650365362991 0.4651436922287775 0.4565410944124995 0.4824832139622925 0.5190790420332676 0.5320530700595388 0.4871074970720881 0.3418162045325774 6.75228280318889e-05 0.9999925908056194 0.9867321014839764 0.9750571698256011 0.9646962158519968 0.9554135706153817 0.9469997805856758 0.9392663262008437 0.9320398847274125 0.9251588145687638 0.9184696373611508 0.9118237541084754 0.9050733408636918 0.8980670701997845 0.8906406389686715 0.8825982257646143 0.8736434633494853 0.8629714824817851 0.8440297161372539 0.7383893206761873 0.003361093576311773 0.00010710980490574468 0.7735939107141601 0.7323383242915016 0.6977260295314505 0.6698710805867851 0.6487601685982387 0.6342495347706518 0.6259339246145514 0.622661510239196 0.62101009783455 0.615618432752883 0.5980120409719052 0.5637954909241305 0.5209494314038943 0.48815049482471207 0.48134456918206747 0.4991176640802656 0.5175012145564778 0.4938561381723837 0.3649083378071551 6.69772570682167e-05 0.9998849036619657 0.9891947254879419 0.9795596768352222 0.9708161633826788 0.9628140381882009 0.9554123754461606 0.9484760841826569 0.9418728414889386 0.9354706156467673 0.9291353851872013 0.9227277197965785 0.9160994710340731 0.9090881809141103 0.9015092151849933 0.8931312604152818 0.8836374878374922 0.872247874319558 0.8539582778497886 0.7599376934092554 0.003277072465237318 0.00010945902451474651 0.7767873102846168 0.7220518854479686 0.6774115077565014 0.6415760546990394 0.614675723602339 0.5965242481761318 0.5863922575105616 0.583376822343949 0.5841433728858523 0.5866738856387971 0.586386147485763 0.5769169891023609 0.5550485114716702 0.5261434661058518 0.5033893644427682 0.49836609175985835 0.507067314356155 0.49651150836453267 0.3892266819715829 6.657390321870054e-05 0.9978815792281789 0.9897651150463265 0.9822823992201669 0.9753457441942356 0.9688706530120365 0.9627723509816981 0.956963782513098 0.9513522847902812 0.9458370572129349 0.9403055493128663 0.9346284698998887 0.9286542828025907 0.9222021738268429 0.9150488198228384 0.9069229522710361 0.8973972232112752 0.8859282610188118 0.8683324117357601 0.7967947683084097 0.004012135059170761 0.00022619207377462246 0.7789119872256525 0.7052051917267811 0.6441136368464049 0.596145724689153 0.5616