# vtk DataFile Version 3.0
vtk output
ASCII
DATASET RECTILINEAR_GRID
DIMENSIONS 41 41 1
X_COORDINATES 41 double
0 1 2 3 4 5 6 7 8 9 10 11 12 13 14 15 16 17 18 19 20 21 22 23 24 25 26 27 28 29 30 31 32 33 34 35 36 37 38 39 40 
Y_COORDINATES 41 double
0 1 2 3 4 5 6 7 8 9 10 11 12 13 14 15 16 17 18 19 20 21 22 23 24 25 26 27 28 29 30 31 32 33 34 35 36 37 38 39 40 
Z_COORDINATES 1 double
0
POINT_DATA 1681
FIELD FieldData 1
Concentracao 1 1681 double
1.0 1.0000000000000002 0.9999999999999997 1.0 1.0 1.0 1.0 1.0 0.9999999999999998 0.9999999999999996 0.9999999999999989 0.999999999999999 0.999999999999999 0.9999999999999989 0.9999999999999534 0.9999999999923965 0.9999999997061011 0.9999999951876004 0.9999999550837604 0.9999997441663749 0.9999995613882855 0.9999993753528723 0.9999992161797664 0.9999990477495004 0.9999988667394769 0.9999986753514666 0.999998474314048 0.999998263771231 0.9999980365684009 0.999997611786787 0.9999938560538402 0.9999504868667308 0.9995770686580714 0.9972204679702132 0.9861130528456251 0.9466157864660537 0.8410297486179125 0.6334402998660574 0.3479324642587234 0.1012198835674987 1.9383149273535822e-06 1.0 1.0000000000000002 0.9999999999999996 1.0 0.9999999999999998 0.9999999999999996 0.9999999999999996 0.9999999999999991 0.9999999999999991 0.9999999999999984 0.9999999999999982 0.9999999999999984 0.9999999999999986 0.9999999999964535 0.999999985672279 0.9999970911900641 0.9998636815632029 0.9971882880374632 0.9667287583012788 0.7891803598243139 0.7980253032452709 0.8159777319807371 0.8707527793349324 0.8991905506506209 0.9191951026427411 0.9327109427144871 0.9425587011492209 0.9500212096531983 0.9559273593628209 0.9607858468588474 0.96492841154825 0.9685410806047864 0.9714730416052768 0.9721342986939422 0.9637712941113232 0.9268693680754746 0.8242748746977218 0.6209484673877324 0.3410036908501695 0.09917237422253043 1.8968235475796464e-06 1.0 1.0000000000000002 0.9999999999999997 1.0 1.0 1.0 1.0 0.9999999999999993 0.9999999999999991 0.9999999999999989 0.9999999999999984 0.999999999999998 0.9999999999999972 0.9999999999454569 0.9999998442901128 0.9999774331590844 0.9991704591926189 0.9880337724099758 0.8619912884978536 0.003035019201428442 0.0008872918872910884 0.8157867449760644 0.8372017533498431 0.8625998639524355 0.8812728991798572 0.8961873420723793 0.9079745941406705 0.9175661271027087 0.9255716832326191 0.9324526342150905 0.9385413008582363 0.9440414520375408 0.9488060432324555 0.9511999398670399 0.9443896109831463 0.9089640071835439 0.8084596135325842 0.6089194739997046 0.33439682608013943 0.09729476450002324 1.8572813782324775e-06 1.0 1.0000000000000002 0.9999999999999999 1.0 0.9999999999999998 0.9999999999999998 0.9999999999999994 0.999999999999999 0.9999999999999989 0.9999999999999984 0.9999999999999982 0.9999999999999984 0.9999999999999939 0.9999999995423555 0.9999990675765424 0.9998993115122266 0.997251100063868 0.9659911029686772 0.7505032074612876 0.0018696642914802649 9.609984195545788e-05 0.8153939056108664 0.8307935461856408 0.8467960508647074 0.8620046994940067 0.8749658481207341 0.8860735790150922 0.8956166395683065 0.9039554620972098 0.9113974140421536 0.9181987992106505 0.9245205464023626 0.9301666202531037 0.933401571371203 0.9272662693386589 0.8924875141662238 0.7934639786064613 0.5974816163474567 0.3283157798779023 0.09568710432167711 1.8209337391647544e-06 1.0 1.0 1.0 1.0000000000000004 0.9999999999999999 0.9999999999999996 0.9999999999999997 0.9999999999999994 0.9999999999999993 0.9999999999999992 0.9999999999999989 0.9999999999999987 0.9999999999999721 0.9999999972012908 0.9999958502448238 0.9996672168617784 0.9929715558291476 0.9329479253957373 0.6516575358890657 0.001716154887118617 9.390690970097603e-05 0.814780830069817 0.8266939973304461 0.8389784528893933 0.8507401900823421 0.8615750677975395 0.8713014900583569 0.8800342048593094 0.8879429533758236 0.8952251899203504 0.9020651783462439 0.9085729286111647 0.9144849671093892 0.9179371889701271 0.911837989506826 0.877142887028564 0.779309424353859 0.5869185664105689 0.32309248775302113 0.09450533609167147 1.7895937547526256e-06 0.9999999999999998 0.9999999999999997 1.0 1.0000000000000002 0.9999999999999998 0.9999999999999993 0.9999999999999992 0.9999999999999991 0.9999999999999991 0.9999999999999986 0.999999999999998 0.999999999999998 0.9999999999997201 0.9999999858182059 0.99998456283339 0.9990725632155584 0.9849021147512866 0.889311280582029 0.5559142359611798 0.0013834311780425257 9.097091953728672e-05 0.8139369629944705 0.8237253473810382 0.8336085777392438 0.8431987903279956 0.8522247692225874 0.8605962894453765 0.8683312001532565 0.8755275897962528 0.8823178648325984 0.8888389914067248 0.8951564911679908 0.9009311407352928 0.9041594462754158 0.8976505939625299 0.8627346947694279 0.7661353946237273 0.5776537252474054 0.3191868861462567 0.09396320912016508 1.7656270042156258e-06 0.9999999999999999 0.9999999999999999 0.9999999999999997 0.9999999999999998 1.0 0.9999999999999991 0.9999999999999992 0.9999999999999984 0.9999999999999982 0.999999999999998 0.9999999999999979 0.9999999999999751 0.9999999999918889 0.9999999359057578 0.9999483629299135 0.997675281630905 0.9707801594819435 0.8316477232230497 0.4614815586771991 0.001077629648914456 8.742022007066455e-05 0.8128234429041963 0.8211472025042926 0.8293978292701127 0.8374065726833081 0.8450338536303591 0.8522211667792001 0.8589857646522984 0.865396895570721 0.8715575955654523 0.8775759953634749 0.8834779849552459 0.8888433095835915 0.8915346347894065 0.8843396565498559 0.8491629626793127 0.7541879672320122 0.5702302178532545 0.3171582903456213 0.09433325353240855 1.7519155224718063e-06 0.9999999999999997 0.9999999999999999 0.9999999999999994 0.9999999999999994 1.0 0.9999999999999991 0.999999999999999 0.9999999999999987 0.999999999999998 0.9999999999999976 0.9999999999999943 0.999999999998624 0.9999999996776404 0.9999997269110386 0.9998369476157077 0.9945277751313434 0.9467795117269473 0.7568139688063713 0.36776220363364426 0.0007894629431337848 8.33093091181536e-05 0.8113835446173879 0.8186398667465179 0.8256701621186395 0.83247276267732 0.8389748926877217 0.845151539938899 0.8510255577063139 0.8566593955782554 0.8621423625324073 0.8675626279638133 0.8729056553412758 0.8776667766870649 0.8796025841065558 0.8716039565281182 0.8363935870860605 0.743790198395684 0.5652790406757195 0.31768126336506536 0.09596448393952002 1.751904958920724e-06 0.9999999999999996 0.9999999999999998 0.9999999999999994 0.9999999999999993 0.9999999999999999 0.9999999999999992 0.9999999999999989 0.9999999999999982 0.9999999999999981 0.9999999999999952 0.9999999999995801 0.9999999999185639 0.9999999886812293 0.9999988387180111 0.9994953203805568 0.9875578122608131 0.9068821054599701 0.6617258415512152 0.2765699137988879 0.0005369555646526087 7.864112943944993e-05 0.8095239529789974 0.8159625860206768 0.822029529181102 0.8278556415623741 0.8334185637093771 0.8387148825949471 0.8437751163966551 0.8486597656842625 0.8534492254426532 0.8582117935680178 0.862887640516353 0.8668915275767347 0.8679305819222496 0.8591681168688101 0.8244176236402987 0.7352826327511194 0.5634765520784639 0.3215448613422024 0.09930899838475911 1.7696788016085388e-06 0.9999999999999997 0.9999999999999998 0.9999999999999991 0.9999999999999989 0.9999999999999992 0.9999999999999988 0.9999999999999987 0.999999999999998 0.9999999999999957 0.9999999999996935 0.999999999958341 0.9999999957219814 0.9999996763652264 0.9999823594161655 0.9984149038101199 0.9722010461225952 0.8420479116391978 0.5449651365548296 0.19131308579745138 0.0003300088996571551 7.337053765209217e-05 0.8070859124311759 0.8128716269149523 0.8181381666985944 0.8231342229526457 0.8278766795519734 0.8323789193596411 0.8366767689317371 0.840828349769757 0.8449032298844217 0.8489445509976408 0.8528438593378368 0.8559558379782672 0.8560289681656006 0.8467029051287276 0.8131619939212293 0.7289300484797228 0.5654758122450416 0.32964451841554704 0.10496362146507209 1.8100392336386164e-06 0.9999999999999998 0.9999999999999993 0.9999999999999991 0.9999999999999988 0.9999999999999987 0.9999999999999987 0.9999999999999982 0.9999999999999915 0.9999999999993714 0.9999999999473292 0.9999999964354032 0.9999998130756923 0.9999926095486112 0.9997891685006295 0.9947826703498996 0.938383374920715 0.7401745072508625 0.40930974248624274 0.11708092415526328 0.00017603973647922284 6.740075707774143e-05 0.8037590781068339 0.8089993816702516 0.8135662639227573 0.8178160026943454 0.8217985485466823 0.825539920539888 0.8290778734185225 0.8324646568803437 0.8357543699963949 0.8389625095169424 0.8419429205131019 0.8440404008824316 0.8431687041056993 0.8336593372204348 0.8023279795458798 0.7247562120365368 0.5717735231381441 0.3429558429397178 0.11373141595563226 1.878551444103902e-06 0.9999999999999998 0.9999999999999992 0.9999999999999989 0.9999999999999988 0.9999999999999981 0.9999999999999973 0.999999999999948 0.9999999999968457 0.9999999998322819 0.999999992833608 0.9999997570958036 0.9999935333491773 0.99986778715347 0.9980207222348149 0.9799412635869885 0.8642408597773296 0.589389278908743 0.2656162016733876 0.059585430269351425 7.653781155455593e-05 6.05691408536416e-05 0.798749225031034 0.8034996510798714 0.8074033426275442 0.8109133243198305 0.814107110959723 0.8170194712858027 0.8196873975840809 0.8221574918896919 0.8244747335842515 0.826645914736972 0.8285318172803776 0.8295545368590871 0.8279358516757128 0.8188879242309925 0.7910636698485632 0.7222699672646722 0.5824858577842384 0.3624660114097805 0.12669532272976367 1.981390941474151e-06 0.9999999999999994 0.9999999999999946 0.9999999999999324 0.9999999999994343 0.999999999996379 0.9999999999799184 0.9999999998901916 0.9999999987545342 0.9999999662530111 0.9999992727377676 0.9999876462820504 0.9998327933721802 0.9982218301521157 0.9857873442607348 0.9206245775777742 0.7120198017160803 0.3916771337181922 0.13592879007485018 0.022831744781803866 2.4641856099987156e-05 5.263690593656005e-05 0.7894147834946654 0.7936467161217781 0.7968034668936546 0.7994209695789923 0.8016027172044269 0.8033970022090804 0.8048550481839853 0.8060452859204843 0.8070495977577296 0.8079342773489235 0.808660136637711 0.808841412891141 0.8071313345079202 0.7997345261950133 0.7772475583490442 0.7198899379399569 0.5969456722052713 0.3888947673009803 0.14531559645450784 2.124830080069802e-06 0.9999999999999988 0.9999999997296241 0.9999999969036097 0.9999999805730986 0.9999999096214868 0.9999996489325983 0.9999987709135775 0.9999959046709851 0.9999862921762708 0.9999479062650176 0.9995725157680037 0.997033265388447 0.983234685737718 0.926114755635006 0.7612644029666629 0.4654391980074272 0.18994558177640508 0.04765687236755268 0.005690114919913986 5.132720991480185e-06 4.332367523713121e-05 0.7669050321919383 0.7704229431821586 0.7725231148756969 0.7738142170509148 0.7744483318453915 0.7745310078696731 0.7741952252559208 0.7736230361370594 0.7730470611461066 0.7727205700311821 0.7728328211667627 0.7732994907817795 0.7732696739079332 0.7699328672973547 0.7557982333499114 0.7136877208768235 0.6126395764844468 0.42235032765965574 0.17122213932045405 2.313089387755541e-06 0.9999999999992863 0.9999997256881116 0.9999977804170577 0.999989685004809 0.9999645258654465 0.9998967985709213 0.9997284200007192 0.999322212679178 0.9983393968680138 0.995888096876777 0.9893051633557989 0.9677872750524396 0.8991375560098129 0.7407991307326447 0.4813552858576419 0.2110416350814268 0.058521902655992455 0.009979512649668591 0.0008072743216734064 6.201576758880197e-07 3.25080859953774e-05 0.7080400247653451 0.7104379758330986 0.7109830667596987 0.7103617268074133 0.7088386265270773 0.7066795718404031 0.7042262261065271 0.7019172674590123 0.7002841860754992 0.6999089441831019 0.7013323906022652 0.7048653708272186 0.7101873200742195 0.7154321136717581 0.7149353632327871 0.6942781495250823 0.623300716077609 0.45982738503900983 0.20672915394085553 2.5469792175669617e-06 0.9999999999328921 0.9999680339904397 0.9997981771843797 0.9993090965897927 0.9981683641867807 0.9959068112473208 0.9917020616536092 0.9840023745777635 0.9699365324644291 0.9440876803002134 0.8961101722874386 0.8062466632040713 0.6448225996470174 0.4155605470053828 0.19410757169597315 0.05706397595026595 0.00973777061945925 0.0010597596918018452 5.5570029903562263e-05 3.7937936411445657e-08 2.0742876879061017e-05 0.5751182705385566 0.5760484337194612 0.5749045065715371 0.5724129286974601 0.5690084870520882 0.5651785199078407 0.5615363559311616 0.5588256281938494 0.557914968163027 0.5597536478653605 0.565304101095191 0.5754012606632394 0.5904742490465736 0.6098330908835239 0.6301023156097705 0.6403715682054151 0.6123499862610099 0.4953108101955964 0.24935253281839506 2.8103019764741063e-06 0.9999999980328055 0.9988029770075246 0.9947559022032713 0.9845519438097028 0.9686084572893512 0.9464148687597195 0.9151698886812215 0.8713601308916447 0.8101090998825804 0.7252625686852934 0.6101558131343738 0.46096104097472423 0.28692272415807546 0.12990985257669005 0.04086177221800682 0.007761218166028725 0.0007637758575193771 5.1172067262597094e-05 1.7141453752491617e-06 1.1837108967280438e-09 9.867161344924014e-06 0.353637804220028 0.35340987429723775 0.35155676517304124 0.3486749966693693 0.34524436442068934 0.34181159036798997 0.3390572903567948 0.33777615868517746 0.3389072020229318 0.34353150992170917 0.3528824792835918 0.3683629598191521 0.39142256862125513 0.42346622205162693 0.4641369801109811 0.5109321965157447 0.5422051348780452 0.49750528083615847 0.3014797133208287 3.082175735047675e-06 0.99999997145141 0.9776956098262205 0.9043469283229489 0.8242270492576195 0.7496425723723543 0.6732280807284867 0.592741736232897 0.50642404840515 0.41418467208080084 0.3174556225718131 0.2203174987032091 0.13047181429287982 0.059383091673567555 0.017959600745622837 0.003281174785096435 0.0004043169245833051 2.5613055014695975e-05 1.1033277783254445e-06 2.515126504072411e-08 6.362317286487843e-11 2.5757515643311306e-06 0.11866990270745376 0.11825550010699473 0.11723393940300876 0.11583523776477973 0.11430236629873851 0.11292498227527906 0.1120534029029965 0.11210649486781245 0.11359549086953152 0.1171672455136127 0.12368118083818812 0.13432398692839226 0.15083344475244204 0.17551398744668711 0.21280667538611456 0.2615624887418701 0.34998169552696184 0.3969832752183439 0.31450832900644976 3.2921265206479275e-06 0.999999772582947 0.7990829812934099 0.0033433693989440906 0.0021842976872926854 0.0021199188846710466 0.001813115334441173 0.0015075362770224517 0.0011900115957790144 0.0008832734538131097 0.0006023445905326657 0.00036381779846387103 0.0001830247401319004 6.934315233038583e-05 1.7573818332729765e-05 2.7535999660122835e-06 2.9751210979640674e-07 1.721809870690009e-08 7.586780400566355e-10 4.497816042878781e-11 1.160238799062941e-13 2.1479529876368547e-09 7.10615155463923e-05 0.00011867522149742523 0.00013017755072953626 0.0001271610900828021 0.00012361933472530636 0.00011945045529523011 0.0001157088237008582 0.0001128427720666161 0.00011141523465889865 0.00011202815770057759 0.00011542243359665783 0.0001225326623948307 0.00013463492019662632 0.00015289112244693136 0.00018066078126789835 0.0002047619291204491 0.0003047285204953904 0.39154593355328043 0.32591851040661896 3.47172699878173e-06 0.9999996001424415 0.807541837202337 0.000938911306519711 0.00010092496010732788 9.886904056852873e-05 9.597190679436798e-05 9.238451498772251e-05 8.818707097692493e-05 8.341211464165991e-05 7.805092493464407e-05 7.205363451927974e-05 6.531653344522682e-05 5.7667052040708306e-05 4.8872269665208914e-05 3.874849658153214e-05 2.7495845429853535e-05 1.6196507728383193e-05 6.922076602480449e-06 1.581274029343171e-06 1.2426207878110934e-09 2.8822641518181905e-12 4.943836172725032e-08 1.1112060135694261e-07 1.1411404118546321e-07 1.1110356378272949e-07 1.0577171034450348e-07 1.0048410927680675e-07 9.901134295843305e-08 1.1751144951582986e-07 2.0488641018075146e-07 4.5381690881347173e-07 9.64644269398153e-07 1.7721423863828167e-06 2.8090516974177117e-06 3.942906590403628e-06 5.040627285037649e-06 5.996476805785135e-06 1.5432204554277905e-05 0.38499773716477576 0.3072593118829567 3.611886729472158e-06 0.999999424661157 0.824688562056163 0.8245147214068284 0.824186357518709 0.823672170094225 0.8229641725961058 0.8220309649084611 0.8208280751630761 0.8192842372402313 0.8172831482970327 0.8146138326697604 0.810794490839664 0.8043402205289909 0.7902054339658511 0.7539417892301742 0.666837763984538 0.5003734325401312 0.2732972479038299 0.07877960319315876 4.35922592124831e-05 2.857712885848979e-08 1.1100429655184811e-10 1.268764282464023e-10 4.6379605654659876e-09 2.0237764545489306e-07 4.77308002205607e-06 6.582326964931749e-05 0.0005637358055858028 0.003155381149549455 0.012126242283131278 0.03366194878492759 0.07117525653139745 0.1210469430410204 0.17452934727910205 0.22346975621565354 0.2636222751805078 0.2941152483629593 0.3157949442266596 0.3302455231481362 0.2679791071228983 3.7238412902009013e-06 0.9999992746834164 0.8769238251135033 0.8449640598172495 0.838897695861579 0.8350653940688144 0.8323410570575401 0.8300252726247948 0.8278230647429055 0.8255233730631436 0.8229296532864652 0.8197782139778437 0.8155442415997777 0.808682624559787 0.794023125170612 0.7569085349895203 0.6685029191022066 0.5006111745229154 0.27276037936523945 0.07838875190788812 7.268848022356218e-05 6.413717798201892e-08 4.8133714733696025e-11 2.2577703188545277e-11 2.563980006011693e-09 1.2805020244217108e-07 3.328679480804125e-06 4.958971235524823e-05 0.00045099098187378883 0.0026426767204435425 0.010508722448507764 0.02989261598060553 0.06423211545839486 0.11020514910280438 0.15924365029209459 0.20304349075584371 0.23693900799424455 0.25907297628884635 0.2696368938969898 0.25823436863467303 0.19274739960517623 3.7648084846290645e-06 0.9999991161231094 0.9040272935758297 0.8692047786527952 0.8541982273183671 0.846828407119033 0.8418241059054449 0.8379635493216607 0.834613411858412 0.8314149473701312 0.8280829640406714 0.824297200555881 0.8194819694655142 0.8120070288109889 0.7965207150739348 0.7581156260949905 0.6679709675877903 0.49865161303684497 0.2707431972095713 0.07753478238491127 7.958352171033167e-05 6.577179379238057e-08 4.7920051161474274e-11 2.749595832745749e-12 5.293707174954425e-10 3.919620049719576e-08 1.3837321650576142e-06 2.5921176096703064e-05 0.0002790192868005908 0.0018486793672714693 0.008032357531769743 0.02432673368049724 0.05456268696504167 0.09622362546278417 0.14118478295001066 0.1810189903044896 0.21053915875417437 0.22765931034047612 0.23012218973756524 0.21028463001162173 0.14739742702328046 3.7463714863803364e-06 0.9999989459580607 0.9231016159698138 0.8870321081424923 0.8687422091194565 0.858100332113253 0.8510380575908163 0.8456837192641354 0.8412003405226551 0.8370915105908044 0.8329937988113121 0.8285313865763922 0.8230701559128939 0.8148650830451432 0.7983230302461904 0.75824869187744 0.6659806794670771 0.49519847303588677 0.2677526453905877 0.07637629928839113 7.757025184397539e-05 6.395735019422223e-08 4.4848332035185096e-11 1.4466745665497602e-13 1.6846478042263993e-11 3.6063891210288905e-09 2.689149407195701e-07 8.282320827558848e-06 0.00012463456431430203 0.001039121597473756 0.005293909556251756 0.017899570960198185 0.043275522090579215 0.08018110887838746 0.12127847923706887 0.15801558995396262 0.18472136083020682 0.19859741461599578 0.19719074664283337 0.1744758451205052 0.11687881549059508 3.6616706107340607e-06 0.9999987663498277 0.9359861285406444 0.9012678752449931 0.8811355633262532 0.8684840882445847 0.8597137587503132 0.8530429162299871 0.8475059949383347 0.8425240809421004 0.8376715109771277 0.8325229640598995 0.8263784015988455 0.8173471933507798 0.7995430442143584 0.7574814860171112 0.6628313293435099 0.4906884191409313 0.26417324999943054 0.07507478065352238 7.520302743314535e-05 6.07748250718749e-08 4.194124654187408e-11 7.428237328616729e-13 4.625092696140373e-13 1.7541742684967253e-10 2.199589496258728e-08 1.079646469457674e-06 3.344813646066179e-05 0.00042792549826910903 0.0028629019177015317 0.011580941399661832 0.03153819388528733 0.06317766875254684 0.10040018279641139 0.13468532064173241 0.15972210188689734 0.17216849342325208 0.1695030597245834 0.1471546443570749 0.0958929568793048 3.5139691608373476e-06 0.999998578116691 0.9453633168191469 0.9125049913504898 0.8917422826391018 0.877793464584114 0.8677512075298162 0.8599718906585805 0.8534935404972038 0.8476971088097347 0.8421173261671486 0.836285633706113 0.8294275011963946 0.8194764605464069 0.8002198761433281 0.7559334693676182 0.6588274450786011 0.48559824978392996 0.26045883108743956 0.0738217012461549 7.24185448670697e-05 5.736496751923393e-08 8.65248582324895e-09 1.841733875634934e-10 7.099631728005268e-12 7.65597207076596e-12 1.709304386632663e-09 1.3551856391937487e-07 6.285527266253802e-06 0.00011363624677988142 0.0011439723904225513 0.0062477348096129605 0.02052553156065912 0.046336512768948804 0.07941354560358146 0.11156896726114364 0.13582735248678196 0.1481725694369053 0.1460022528866355 0.1256890634933396 0.08059850516440535 3.3129093348635482e-06 0.9999983816791507 0.9524503399752559 0.9216220113882171 0.9008262836418771 0.8861240347932596 0.8751520656132882 0.8664709804065072 0.8591684289103619 0.852623609807622 0.8463496019383876 0.8398401015611289 0.832234543509093 0.8212638472774693 0.8003880146584729 0.7537565614515903 0.6543502199090592 0.48051876738437327 0.2571478253294685 0.07284310144904396 6.984934767325023e-05 5.4087643017978615e-08 2.2206647323577377e-06 1.2114406392689839e-06 1.078460413869573e-07 8.90347965596702e-09 9.073196835246888e-10 1.5719886290304384e-08 1.1143203249424215e-06 2.849722843846073e-05 0.0003866811456074804 0.0027371065791278954 0.011314115921258923 0.030787920974027248 0.05916657570178303 0.08915894082286144 0.11317627938216052 0.12635916989127657 0.12579493053078816 0.10837597372757846 0.06904591128221804 3.0733614138977776e-06 0.9999981751592111 0.9580334545302561 0.9291927823973274 0.9087196552004426 0.8936228078831009 0.8819928214926731 0.8725874917049844 0.8645710407602861 0.857341893744852 0.8504049387910873 0.8432167960834973 0.8348168157673957 0.8227178372969379 0.8000953753836587 0.7511559950274544 0.6498835195190409 0.4761615670373268 0.2548648706228985 0.07240278034618675 6.775745452071068e-05 5.1619733051680464e-08 6.130904268708349e-05 4.299119581687867e-05 1.710112047259282e-05 2.3094763452812867e-06 3.3817437866962165e-07 5.124051568970245e-08 1.85687465607093e-07 6.586647024689124e-06 0.00012046848728438534 0.0010982430534092309 0.0056336347862295435 0.018383483484179296 0.04071963509703208 0.06790594758723974 0.09185766096238515 0.10647270228960376 0.10823448794607558 0.09415680259010535 0.06008387587265226 2.81214782408807e-06 0.9999979005995808 0.962593969590914 0.9356496963150244 0.915704275776303 0.9004632884833401 0.8883817931843466 0.8784000133007925 0.8697654198577275 0.8619077608773761 0.854329155913126 0.8464445788836739 0.8371793517866555 0.8238346026886917 0.7994039702773568 0.7483984419836318 0.6460109181669463 0.47334629559658126 0.2543349959363029 0.07281509068374475 6.646558875775066e-05 5.436857425173086e-08 0.0006859213482796761 0.000537566368177645 0.00030934026961182404 0.000112889288545616 2.4837591328065103e-05 5.4585823440653e-06 1.1761440209953705e-06 1.5949920188920183e-06 3.4221175686043055e-05 0.00040202463602207855 0.002557031515460675 0.010025294999633871 0.02585027395634409 0.04851599795894604 0.07149434156230376 0.08772618896346543 0.092398380150292 0.08205466072877816 0.052890328334397815 2.5452874065634445e-06 0.9999963504833808 0.966447073450538 0.9413042626158555 0.9220155047935426 0.9068088189632894 0.8944351346922473 0.8839956096288233 0.8748199085714591 0.8663712286279199 0.8581476323016639 0.8495135525441271 0.8392753961521435 0.8245662451693181 0.7983662071598188 0.7457849969570671 0.6433795416091445 0.4729790866729942 0.2563991464187595 0.07447211849342018 6.63121475840376e-05 8.382513494319897e-08 0.004115037830991336 0.0034375392752399245 0.00237848087775018 0.0012909171849746427 0.0004732921482054477 0.00014522768403425756 4.242340736811529e-05 1.1834437074705564e-05 1.1634585542299825e-05 0.00013427135973241068 0.0010577978301091163 0.004998806827565407 0.015119977982211437 0.032364130430313984 0.052872900073839206 0.06994147717662298 0.07753122301126265 0.07113782359457162 0.04673359745793408 2.285647847791364e-06 0.99997745268516 0.9697881388623886 0.9463680129141493 0.9278217846857313 0.9127786509640192 0.90023006496264 0.8894161353063401 0.8797405966469842 0.8706954257116531 0.8617683136504679 0.852268804747102 0.8409042793936208 0.8247352838467351 0.7969551844196704 0.7435833271100499 0.6426313473427854 0.47601920775333423 0.2620344447787523 0.07788825650859363 6.771026674657928e-05 1.9867952359171723e-07 0.01535032697028433 0.013339036390506081 0.010274902715346717 0.006842228524664285 0.00371804533014576 0.0015293215960311152 0.0005885993152630897 0.00021026175047663816 7.122771706545315e-05 6.0975875710600515e-05 0.0004038423311564037 0.002281931676989983 0.0081485087143916 0.020108540425717022 0.03697090348985102 0.05365916431690845 0.06368379972371468 0.061251100064153734 0.04146711804954245 2.043205387655212e-06 0.9997981123706543 0.9726115640783943 0.9508431644414103 0.9330855616950817 0.9182784828945462 0.905608083314584 0.8944308875401336 0.8842133671281729 0.8744712043109365 0.8646829676128492 0.8541213104808487 0.8414566279505127 0.8238249308979251 0.7948890862690161 0.7418649805981671 0.6442599511184487 0.4833927754659754 0.2723821719991966 0.08377952842553102 7.119127587108419e-05 4.867476876359782e-07 0.03955805309844303 0.035215322274419404 0.028960479144900266 0.021725426154390257 0.014471745159042648 0.008108673053604371 0.003964531309724429 0.0017817103584653812 0.0007360770936439788 0.00028955275123078233 0.0002326188392451925 0.0009817702602856848 0.004052763676775833 0.01161861357535432 0.024349679972516927 0.039411175260927335 0.05097045548775844 0.05224685285730619 0.036955470578365276 1.8245404135916062e-06 0.9985702567550098 0.9740990986362634 0.9538804611029338 0.936873525572136 0.922260299764136 0.9093850781537557 0.8977046404066025 0.8867479149326833 0.8760669937911798 0.8651628081927607 0.8533311661500845 0.8393123246086102 0.8204915110576138 0.7912346775561502 0.7401759001122911 0.6483428767351076 0.49583374584904194 0.2887782404670767 0.09317991010831657 7.747615520701863e-05 1.006690413629946e-06 0.07677923844338755 0.06925522875512712 0.05924299306463499 0.04774294759485404 0.03576015410298465 0.024279825503487833 0.01449954367252141 0.007926606816542415 0.0039734627341395535 0.001831454047482225 0.0008147097941724521 0.000660654329405793 0.0019496912640189542 0.006256355902754185 0.015054905527066672 0.027570806606015637 0.039544591176147795 0.04399778309084996 0.03306248892637596 1.6330759767018968e-06 0.9923607488743669 0.9703245988634693 0.9514620972292734 0.9350141251842597 0.9203637540279813 0.9070016836586055 0.8944993614749657 0.8824835935195732 0.8706008983918787 0.8584528074967069 0.8454579153689861 0.8305498682219589 0.8115062578237807 0.7835431247422467 0.7368375797580033 0.6539897553120972 0.5135310438152773 0.31264608197796034 0.10766306175357405 8.761998607177801e-05 1.7342936888617711e-06 0.12084079002775558 0.1094863864720344 0.0957099730024777 0.08044921110402972 0.06457109552297252 0.04888975056572813 0.034163280748321735 0.02192637490498674 0.012959414439181265 0.007060077641823452 0.0035569092207037687 0.0017631842967669373 0.0014622802006812336 0.0033413257813137962 0.00876414838859099 0.018277709995185625 0.029557374816665136 0.036402781169424525 0.02964707610187103 1.4696845260042507e-06 0.9687193570040085 0.9488634782078134 0.9311155008933084 0.9149594200560182 0.8999832927927731 0.8858630930142091 0.8723530562902811 0.8592683814985678 0.8464545994606488 0.8337215693029462 0.8207152781309628 0.8066514501666789 0.7897607607672399 0.7661311986483337 0.7274985991326818 0.6581827459813786 0.5352240161270799 0.3453385377932207 0.1293910327820938 0.00010263880929223429 2.5741680723053758e-06 0.16392953646341255 0.14805372520564417 0.1305881342628639 0.1122520331570316 0.09373926984353956 0.07559339062739483 0.058268991784560846 0.04223451572605987 0.028553813992326094 0.017965362540071538 0.010506519250869211 0.005732036414005624 0.0031369171916485914 0.0026887513895494128 0.005153217770782649 0.011517829571806675 0.02114003926783024 0.029396158812526624 0.026559678493763172 1.3335583630175144e-06 0.9004651434857202 0.8828204555139226 0.8662842095518797 0.8505905660471194 0.8355788445670991 0.8211916048426385 0.8074656647883864 0.7945103597441873 0.7824724711737822 0.7714622656558071 0.7614221337377364 0.7518928598669786 0.7415608371326565 0.727335468946263 0.7024711039791036 0.6533011955426139 0.5563164965179728 0.3862412215777597 0.16247579137769672 0.00012518304714634681 3.414543030404107e-06 0.2008736406963309 0.1794943342705429 0.15806285395055952 0.13704952896698644 0.1167801553116517 0.09756556435441696 0.07954436526215415 0.06263604948170366 0.0468734978294394 0.03316136618437672 0.02208786463983544 0.013804297033619389 0.0081280343422433 0.004879412590421379 0.004342283435129127 0.007394375104919568 0.014491304852516807 0.02297864574185479 0.023642514766269464 1.2229496364524029e-06 0.7519749405290055 0.7373028409975086 0.7230336428357127 0.7091440361425606 0.6957481889740007 0.6830908221037035 0.6715147593149645 0.6614533770055098 0.6533779732526057 0.6477279433456355 0.644794801118604 0.6445230255542559 0.6461524456263161 0.6474926925881783 0.6434442416019773 0.6228747440859043 0.5638274132431871 0.4319929462903481 0.20607945737696892 0.0001456504426259215 4.161309696656627e-06 0.2297502970918289 0.20109483038351997 0.1752807696273335 0.15141684127781785 0.12982554520120596 0.11036317203517144 0.09283119654188687 0.07697512569043063 0.061826097283809237 0.047825514792932795 0.0354308883