# vtk DataFile Version 3.0
vtk output
ASCII
DATASET RECTILINEAR_GRID
DIMENSIONS 41 41 1
X_COORDINATES 41 double
0 1 2 3 4 5 6 7 8 9 10 11 12 13 14 15 16 17 18 19 20 21 22 23 24 25 26 27 28 29 30 31 32 33 34 35 36 37 38 39 40 
Y_COORDINATES 41 double
0 1 2 3 4 5 6 7 8 9 10 11 12 13 14 15 16 17 18 19 20 21 22 23 24 25 26 27 28 29 30 31 32 33 34 35 36 37 38 39 40 
Z_COORDINATES 1 double
0
POINT_DATA 1681
FIELD FieldData 1
Concentracao 1 1681 double
1.0 1.379267031997173 0.7616865509853312 0.34024129492997884 0.12675527802427086 0.040164370578841944 0.011042461700799608 0.002685194810381471 0.0005885667288158139 0.00011839063787022402 2.2219452784312527e-05 3.947186864237727e-06 6.718954498751799e-07 1.1068180668314218e-07 1.778481900674676e-08 2.8046813405892467e-09 4.3612005217161753e-10 6.710179206612316e-11 1.0241777988601054e-11 1.553533513069401e-12 2.344854346110179e-13 3.524429846964442e-14 5.277171505587508e-15 7.871183535569058e-16 1.1690565711832186e-16 1.727536311487583e-17 2.53650805794644e-18 3.6932056962108226e-19 5.3174147724918177e-20 7.540451942043228e-21 1.0473429510425709e-21 1.4139390589046548e-22 1.8355882252889522e-23 2.2575736837646454e-24 2.575592717003313e-25 2.644641039342365e-26 2.3369477691951575e-27 1.6556922566255616e-28 8.288797927152336e-30 2.175113149587912e-31 1.7400891634587936e-37 0.692269819111482 0.7486701094043499 0.23637120144166424 0.06716143962980482 0.016260298285030252 0.003524891368204238 0.0006797207121886548 0.00011796612497455475 1.863162059479928e-05 2.7154498242713976e-06 3.7044956248886394e-07 4.792655089573265e-08 5.9494239264671065e-09 7.156591227875358e-10 8.412073178768519e-11 9.73256289882024e-12 1.1158718350344872e-12 1.2775688870688067e-13 1.4747979129338158e-14 1.7402106559862674e-15 2.1391315540723626e-16 2.803001432421113e-17 3.996852267352602e-18 6.252143566599039e-19 1.0628034002843321e-19 1.9211258525203097e-20 3.604673246969604e-21 6.879858153745614e-22 1.3151380183459524e-22 2.4875036666886206e-23 4.6026520287220715e-24 8.232094612250265e-25 1.4023487238716021e-25 2.2322541540558495e-26 3.235805795987658e-27 4.1229160581270045e-28 4.39093586932108e-29 3.621599600140614e-30 2.0289772223452576e-31 5.705370050933963e-33 4.6718041826287434e-39 0.3897704780622147 0.39185474516588664 0.09450709661882851 0.01910318438387071 0.0033360224041799652 0.0005231922181549734 7.355933025304074e-05 9.33757325562094e-06 1.0803302657218021e-06 1.1536266033550457e-07 1.1528117280113994e-08 1.092030303189829e-09 9.923204711669511e-11 8.740057678123712e-12 7.529439179559938e-13 6.399619229535562e-14 5.415690314121476e-15 4.61699284509682e-16 4.032834630568664e-17 3.70292612947533e-18 3.7080318615568613e-19 4.236878350083934e-20 5.75483860970924e-21 9.444322438785681e-22 1.8383115228527827e-22 4.066845733025493e-23 9.75874712348242e-24 2.4436815449119458e-24 6.2092911611085575e-25 1.568761531164609e-25 3.874570846417356e-26 9.204596956037185e-27 2.0644033605444903e-27 4.270708239807899e-28 7.904768742969871e-29 1.2567631910767285e-29 1.622494988810556e-30 1.5663963492840867e-31 9.863427441329282e-33 2.98045045934199e-34 2.500282518929297e-40 0.1836714292449294 0.17523838906769099 0.036727931548744076 0.0059494440066021805 0.0008040151332186296 9.611767643087139e-05 1.0188435959651468e-05 9.677275705083446e-07 8.327296826934532e-08 6.582992483569819e-09 4.852962767820865e-10 3.382733650921251e-11 2.2580190893772008e-12 1.4597890749621926e-13 9.23360251165857e-15 5.772765653871875e-16 3.609062971602868e-17 2.2927126142260462e-18 1.5161080831990033e-19 1.0837011339761793e-20 8.843273184580843e-22 8.814660146309391e-23 1.140896926907554e-23 1.9654187486440736e-24 4.383451379529935e-25 1.1879419840332652e-25 3.6497296780677745e-26 1.2010016128588807e-26 4.065253003744981e-27 1.375865456043723e-27 4.553486003568749e-28 1.4441733773624031e-28 4.292564159695999e-29 1.1638251436171544e-29 2.778838144913049e-30 5.577711408634128e-31 8.83814429854019e-32 1.0105951825466018e-32 7.223527931223076e-34 2.3605818429681366e-35 2.0334075928167106e-41 0.0762223067809799 0.07026124870001368 0.013299134240879357 0.0018381581591553739 0.00020250482113614646 1.9131190979818918e-05 1.5681992926386601e-06 1.133764189168156e-07 7.341559587146381e-09 4.3312730207715805e-10 2.3687351683903328e-11 1.2197447253118656e-12 5.99774752679687e-14 2.8518333431647268e-15 1.3263736158638084e-16 6.10603659046564e-18 2.8224149204318403e-19 1.3368343518561666e-20 6.696048337090406e-22 3.7274183111000295e-23 2.479577500216063e-24 2.1569434305450995e-25 2.6618743695991034e-26 4.816411857374537e-27 1.2319588014765652e-27 4.095159670640686e-28 1.6134602725276484e-28 6.99258888847701e-29 3.162362920708952e-29 1.439589545203866e-29 6.419058884447442e-30 2.737896387122736e-30 1.0889578276487645e-30 3.9181214744317233e-31 1.2257782080209234e-31 3.1644792610949034e-32 6.280915631022776e-33 8.680043181382948e-34 7.161776485446308e-35 2.560475660739771e-36 2.2732881353431537e-42 0.029132563551894565 0.02609901740595625 0.0045416407122803384 0.0005478246945906198 5.033258110399741e-05 3.826246006401325e-06 2.456822386884461e-07 1.364528399244242e-08 6.692750240209387e-10 2.9605861704121144e-11 1.2051955308395074e-12 4.595703907104511e-14 1.6675914076982578e-15 5.839619900321279e-17 1.9988975618289855e-18 6.78080452435144e-20 2.3186550033389173e-21 8.192135661120236e-23 3.1093323365316923e-24 1.348528008455735e-25 7.315910659538425e-27 5.556597478082243e-28 6.541672411719287e-29 1.2442271298660657e-29 3.653713400302141e-30 1.4916540941895663e-30 7.550979482208928e-31 4.320981484145379e-31 2.6201976661261046e-31 1.6121334120759595e-31 9.749612134277028e-32 5.643086146736671e-32 3.0400473306415305e-32 1.4750925310719917e-32 6.174581849952763e-33 2.1046397968951177e-33 5.395858579998177e-34 9.299403852903588e-35 9.11200807617106e-36 3.627569681350602e-37 3.342953284939095e-43 0.010800056119914471 0.009381528855922978 0.0014945832925092192 0.00015608499002893618 1.1899045795671772e-05 7.251096911332891e-07 3.6427963295623695e-08 1.5542611710854006e-09 5.778055844572547e-11 1.917961544973096e-12 5.816233808527064e-14 1.6435334717410496e-15 4.4035351758494836e-17 1.1361304817355901e-18 2.863420873531758e-20 7.160189552900173e-22 1.811809408453231e-23 4.776668601549167e-25 1.374316672516213e-26 4.645529248618393e-28 2.056410645201537e-29 1.364341623597916e-30 1.5332969643399333e-31 3.0676473280951543e-32 1.0351511537219264e-32 5.196947331689764e-33 3.386607234546748e-33 2.5656812905569555e-33 2.0939090596954182e-33 1.7503284264092752e-33 1.446070789228774e-33 1.1471797218727819e-33 8.486336082843874e-34 5.6582614670941785e-34 3.2506223728804017e-34 1.5136827345646645e-34 5.234555260501786e-35 1.1832160091857471e-35 1.4369328036296298e-36 6.595543378116202e-38 6.359784505106412e-44 0.004144531633880094 0.003453309438008733 0.0004826652283827036 4.202450910476634e-05 2.545778180725982e-06 1.2134502181975298e-07 4.6963623927250326e-09 1.5260240173945612e-10 4.277997347540882e-12 1.0624752483550839e-13 2.395988210212608e-15 5.0120448753345806e-17 9.909165542424388e-19 1.8830292133335998e-20 3.493795895568782e-22 6.4399916400759215e-24 1.2060467998221775e-25 2.3731396548239676e-27 5.177805237419511e-29 1.3648289538823428e-30 4.932569945011337e-32 2.8604696196438477e-33 3.0702444382169333e-34 6.465211466135447e-35 2.50869957470815e-35 1.5503902652354487e-35 1.3026061234929633e-35 1.309628220609016e-35 1.4434866569719468e-35 1.6475748596765658e-35 1.8727020872270103e-35 2.0565205157249538e-35 2.1184984986073997e-35 1.9796191415246213e-35 1.6057951572916444e-35 1.0620639555869405e-35 5.250051883680919e-36 1.677496472174616e-36 2.7573805995992233e-37 1.5175197898945826e-38 1.576411413448784e-44 0.0017714281073702878 0.0013534466788315826 0.00015844171213357314 9.855359705801105e-06 4.441231123940785e-07 1.5806750676983285e-08 4.5962927113683733e-10 1.1197662977880341e-11 2.34501548138897e-13 4.331704345467852e-15 7.236410386027413e-17 1.1177889877485298e-18 1.6282036415782094e-20 2.276588452192953e-22 3.1078555921072946e-24 4.221886885944635e-26 5.852383343770761e-28 8.598410913862907e-30 1.4235949155653778e-31 2.928899915625461e-33 8.65062997381228e-35 4.3889927127153316e-36 4.502100339177656e-37 9.98016692494088e-38 4.453197603380572e-38 3.3888585735142795e-38 3.6733788675193856e-38 4.908872157363887e-38 7.32642197752701e-38 1.1464868017754112e-37 1.8036974796356397e-37 2.7661042320245917e-37 4.018499117574552e-37 5.3625026682464654e-37 6.304712593111775e-37 6.192533507642733e-37 4.611376155517126e-37 2.3556376095320307e-37 5.970345829489394e-38 4.654842435028994e-39 5.147409417575568e-45 0.0009595393026071843 0.0006736233475184661 3.948438094693559e-05 1.55612794764558e-06 4.666076981232657e-08 1.1827150133514152e-09 2.5031425189074713e-11 4.489600631498892e-13 6.941221576299643e-15 9.463404210703658e-17 1.1653097312951778e-18 1.3248292319010453e-20 1.4187833212005372e-22 1.4579990079822934e-24 1.463894539150853e-26 1.466048937351586e-28 1.5056788072760971e-30 1.654616527340101e-32 2.0837063240471116e-34 3.355713537085122e-36 8.124294539530211e-38 3.6148640688462007e-39 3.5471063864663254e-40 8.271281943236392e-41 4.235408621196347e-41 3.9593811159314275e-41 5.527154681529994e-41 9.80889661380998e-41 1.9830074561097436e-40 4.262321460992131e-40 9.31570496902873e-40 2.007183315929665e-39 4.15180582534567e-39 8.021985204261119e-39 1.4010176528378506e-38 2.097837556804684e-38 2.5779616234844527e-38 2.0695806933444825e-38 1.33922899867997e-38 1.5800674122605458e-39 2.4089894774760256e-45 0.0006474128265990464 3.36727209054882e-08 1.3833251980514809e-09 5.606833710207372e-11 1.67627325351285e-12 4.291440545204819e-14 9.134627641960582e-16 1.643311948761356e-17 2.5413637854355747e-19 3.4589343090826804e-21 4.2455313970080666e-23 4.8060372893790655e-25 5.1207675940891404e-27 5.232566456935136e-29 5.221521392414732e-31 5.195489149594405e-33 5.300099723332237e-35 5.784001632106842e-37 7.232287832427344e-39 1.1562710028376373e-40 2.7785739628402812e-42 1.2269868291320748e-43 1.1947661149347986e-44 2.7640024212297657e-45 1.4039902924933826e-45 1.301563119249043e-45 1.8014606389682655e-45 3.1683649050596504e-45 6.345019154284059e-45 1.3501743414850117e-44 2.9190755017576047e-44 6.214845011261351e-44 1.2685029792646282e-43 2.4142220773270145e-43 4.1452050668225005e-43 6.083128082311289e-43 7.362957797992824e-43 5.651038213288941e-43 4.5293835031060365e-43 1.0347427589685826e-39 1.490782609707488e-45 0.00044786505887216537 6.686052044238484e-13 4.5554128791384964e-14 1.875421642921399e-15 5.839257418318734e-17 1.5241784977738995e-18 3.286700826794195e-20 5.954156009099749e-22 9.2364977158673e-24 1.2574142607909155e-25 1.5406462014512289e-27 1.7383755371440445e-29 1.8442277596510074e-31 1.8748645328651153e-33 1.8602558763414356e-35 1.8395521916347088e-37 1.8645079977229717e-39 2.020973616708236e-41 2.5093701545435315e-43 3.982981958536761e-45 9.500723340483337e-47 4.1640032516765215e-48 4.023594596491312e-49 9.234768950144401e-50 4.652946697188134e-50 4.277833634357431e-50 5.869683392656817e-50 1.0229678126131004e-49 2.0290706126572692e-49 4.273433144324166e-49 9.135829263781964e-49 1.920947679777445e-48 3.865515088986314e-48 7.236166568963281e-48 1.217990293044673e-47 1.745806258378521e-47 2.0424262023642116e-47 1.5315016446381376e-47 1.0786008387683217e-47 6.592182913386634e-40 9.517455498196828e-46 0.0003095497331466739 1.5821486500939727e-17 1.282493808695753e-18 6.037908294882802e-20 1.9841106634296256e-21 5.341749308118175e-23 1.1718633253857026e-24 2.143655434483295e-26 3.341456583361494e-28 4.5554431789164476e-30 5.576624796210289e-32 6.275999430003038e-34 6.632705702493684e-36 6.710644539803183e-38 6.622269869340809e-40 6.509571727559483e-42 6.556120139072779e-44 7.059008624980924e-46 8.704696136687168e-48 1.3717703022680345e-49 3.248183656253966e-51 1.4130470599246317e-52 1.3549390034738345e-53 3.085415443471574e-54 1.542027254933895e-54 1.405991022071846e-54 1.912513789352821e-54 3.3030537689638444e-54 6.488755118051283e-54 1.352583164846894e-53 2.85905736215976e-53 5.935924339521789e-53 1.1772444795769497e-52 2.166007530730001e-52 3.569334894484282e-52 4.9754020572122865e-52 5.602216922624623e-52 3.932179514469058e-52 2.461956108442588e-52 4.204351309741552e-40 6.069577126759028e-46 0.00021395068761861067 3.74422138925131e-22 3.6047293920593536e-23 1.9395538028302627e-24 6.724314580760181e-26 1.867622434494372e-27 4.1693380313239955e-29 7.704014586259189e-31 1.2070232080835155e-32 1.6484628042918588e-34 2.016767572025739e-36 2.2642970871339092e-38 2.3841047855725115e-40 2.400980788533077e-42 2.3567800833382757e-44 2.3031333367399024e-46 2.3050489514025383e-48 2.4653412756473133e-50 3.019377844296897e-52 4.724484774909314e-54 1.1105800943580748e-55 4.7951499383621714e-57 4.5630062526925554e-58 1.03098714836176e-58 5.11133842507361e-59 4.62218042773693e-59 6.233439285707719e-59 1.0669831681428794e-58 2.0763335340897073e-58 4.284303296043921e-58 8.956567147809725e-58 1.8367541217443848e-57 3.5914250180468993e-57 6.49782245941508e-57 1.048710326547142e-56 1.4222266385556528e-56 1.5414623604157385e-56 1.0125093428748757e-56 5.629375612869495e-57 2.681444092885092e-40 3.8707579469883595e-46 0.00014801014842943624 7.427857744993094e-27 1.1824556945627572e-27 6.439487580883456e-29 2.3241099019372523e-30 6.584999249143009e-32 1.4905672497878959e-33 2.7765786425497807e-35 4.3680554158114564e-37 5.97248925946168e-39 7.29921852311176e-41 8.173358044807278e-43 8.572925668418112e-45 8.59279583200664e-47 8.38936038496737e-49 8.149572725179999e-51 8.105182638151564e-53 8.611129400423291e-55 1.047385002521928e-56 1.6273386684314047e-58 3.797606789723565e-60 1.6275132490577914e-61 1.5369500260136905e-62 3.4458535138858566e-63 1.6948622642768954e-63 1.5201839277261758e-63 2.0330306217282655e-63 3.449655685336721e-63 6.651938940316444e-63 1.3592795351586744e-62 2.811913289436918e-62 5.700368615452761e-62 1.1000907335033086e-61 1.960332324561143e-61 3.105766038196679e-61 4.118645774455961e-61 4.318128234022071e-61 2.768325139144002e-61 1.349102747538423e-61 1.708383437423885e-40 2.4710683572228473e-46 9.977637829418977e-05 3.7230998266624336e-31 4.0958821232136283e-32 2.2892836557828538e-33 8.234488413258176e-35 2.359713988757934e-36 5.381941760923184e-38 1.0074164585882688e-39 1.588078604341561e-41 2.1709192220402538e-43 2.6480583131711104e-45 2.955377057004041e-47 3.086654023113413e-49 3.078170454445878e-51 2.9883491222177924e-53 2.8851702783491246e-55 2.850976482140845e-57 3.008793298165265e-59 3.634296944528151e-61 5.606309551332553e-63 1.2988120141919678e-64 5.525215483720514e-66 5.1784207979221026e-67 1.152116138337225e-67 5.622684019656628e-68 5.003060689120588e-68 6.63640323032806e-68 1.1166165109517742e-67 2.134537010826477e-67 4.3223680396103254e-67 8.855553807865089e-67 1.7766341152391843e-66 3.3897124775368155e-66 5.963144891248197e-66 9.310179159404726e-66 1.212986908964625e-65 1.2544652436285343e-65 7.697939007428145e-66 4.595694079226901e-66 1.1176274733824236e-40 1.5312127946729477e-46 5.328313185937343e-05 1.8199862104150907e-31 9.441383540527426e-33 3.138332788451562e-34 7.008728661706617e-36 1.3539592257120416e-37 2.151194536275779e-39 2.869682098785582e-41 3.2607014744286106e-43 3.2343789683257404e-45 2.873552011292362e-47 2.3422196143088036e-49 1.791345203558712e-51 1.312817865759346e-53 9.420556205513755e-56 6.78894480621616e-58 5.093216302324499e-60 4.199277344758015e-62 4.1482402158927554e-64 5.596228283761463e-66 1.2360439306743807e-67 5.509214428226439e-69 5.898222783922387e-70 1.6030775991996334e-70 1.0004817208490546e-70 1.171268789090649e-70 2.0784933036807952e-70 4.722432781038282e-70 1.2251519986517484e-69 3.375479055449702e-69 9.420891549989301e-69 2.5767829250177702e-68 6.711248109751034e-68 1.6164588369323397e-67 3.4849111089925144e-67 6.343978136165778e-67 9.672111833556211e-67 8.539195369306148e-67 1.1161653452097199e-66 3.959351889945228e-41 7.315655458464053e-47 2.1433906073929034e-05 6.630293833809664e-32 2.8059821962611263e-33 6.24611168730805e-35 9.799983898103188e-37 1.3430878789560828e-38 1.5404187102057511e-40 1.493948026887611e-42 1.239360184860361e-44 8.991524213103373e-47 5.847694583290238e-49 3.492139267526121e-51 1.9592381616099809e-53 1.0560000673020276e-55 5.600186343987473e-58 3.00971247939563e-60 1.711457096882791e-62 1.100091809312299e-64 8.866531359800766e-67 1.044217194075326e-68 2.1975280431964907e-70 1.027168690783874e-71 1.2588185238551296e-72 4.189722452456144e-73 3.351551257108518e-73 5.171404568812686e-73 1.2290590466576458e-72 3.7722196719913415e-72 1.3276569611802442e-71 4.970760626926343e-71 1.8855011592355502e-70 7.003546206274863e-70 2.474271227348137e-69 8.077798126063401e-69 2.3609396866266395e-68 5.864854294921062e-68 1.2252413827443685e-67 1.5444454023219343e-67 2.840262215610778e-67 1.3415994549653065e-41 2.6164949043616756e-47 7.215731114343327e-06 2.1225286908873396e-32 7.65328093260423e-34 1.367177879340745e-35 1.6275872845464879e-37 1.676242841761093e-39 1.4326007311911584e-41 1.0309651422762167e-43 6.322743753055642e-46 3.3817938001436926e-48 1.618353489211398e-50 7.103841941043429e-53 2.9299913465853853e-55 1.1629475108736251e-57 4.56119073031016e-60 1.828538274688499e-62 7.880737965807358e-65 3.9474319869683233e-67 2.5945331191723666e-69 2.6663679880754697e-71 5.345851228850272e-73 2.621200209201885e-74 3.679312151829831e-75 1.5007254239212662e-75 1.5396342679431754e-75 3.132362837033856e-75 9.970672097282147e-75 4.13278027765991e-74 1.9719238371239924e-73 1.002009714148553e-72 5.155012296868853e-72 2.5913881785871717e-71 1.2348394210504377e-70 5.412503452606204e-70 2.1120445564437214e-69 6.951709704368196e-69 1.9101244335078975e-68 3.1171020985957544e-68 7.173375204254851e-68 3.8889464118999886e-42 8.021311897182701e-48 2.150498131213157e-06 6.093772173618319e-33 1.9776278955582913e-34 2.9783425458398894e-36 2.859119076354136e-38 2.2952308822699638e-40 1.4984936796065462e-42 8.124017388661369e-45 3.719191192926915e-47 1.475611071006043e-49 5.2167727957397805e-52 1.6877715307057912e-54 5.126376477279114e-57 1.5000895354674446e-59 4.354375762504452e-62 1.3027009190815003e-64 4.2559706457983804e-67 1.6612416437794658e-69 8.903350448621336e-72 7.983123382264813e-74 1.5248709404718593e-75 7.84476411897523e-77 1.2615626010601808e-77 6.308228839593445e-78 8.3019583791538995e-78 2.2273200257398098e-77 9.495690154534261e-77 5.314697297099918e-76 3.436604800522972e-75 2.3684071345426304e-74 1.6507111852516975e-73 1.1207669420809819e-72 7.178900066907179e-72 4.199567443786084e-71 2.1645835074437694e-70 9.272942556934827e-70 3.245124110587567e-69 6.534194675615041e-69 1.768157934712312e-68 1.0644847509621988e-42 2.2711050076350818e-48 6.051344137391507e-07 1.6615529297146544e-33 4.911373646128546e-35 6.3761551296729154e-37 5.0256110457007584e-39 3.196434956691243e-41 1.6111496765557749e-43 6.628414296774446e-46 2.2759203791896987e-48 6.719922146218902e-51 1.758903662329818e-53 4.200454871906319e-56 9.40500805655975e-59 2.0304411607022624e-61 4.3640982188908633e-64 9.746284295468657e-67 2.414171845554031e-69 7.343961418297376e-72 3.2097940235575903e-74 2.5112279805234686e-76 4.570020918588957e-78 2.4670810691405138e-79 4.546122173120456e-80 2.787220056005482e-80 4.7062773380610836e-80 1.665250308747696e-79 9.510191562205738e-79 7.188415423573818e-78 6.300330779583382e-77 5.889888108582769e-76 5.561891044978759e-75 5.100492999697623e-74 4.390395738222715e-73 3.424670619828053e-72 2.3266606079462235e-71 1.2913202415900382e-70 5.708078299507392e-70 1.3993508674029145e-69 4.3981511069894763e-69 2.902580457828253e-43 6.390723103434916e-49 1.713340454520393e-07 4.5378374660359165e-34 1.2113243664102392e-35 1.3340447474340776e-37 8.538739163537436e-40 4.263942771971031e-42 1.6519811090427736e-44 5.145700907772274e-47 1.3239435552079831e-49 2.9083127392180958e-52 5.6362249119854614e-55 9.935641423272357e-58 1.6402546355926703e-60 2.6129785856937255e-63 4.159198646616772e-66 6.934873585172116e-69 1.3026204728417922e-71 3.088747448765341e-74 1.1010842682291569e-76 7.517135442911299e-79 1.3035701508787528e-80 7.384985628231067e-82 1.5594065308327427e-82 1.1723134551961776e-82 2.539935985933508e-82 1.185549276173422e-81 9.072633320237156e-81 9.265634869046058e-80 1.1015045791240176e-78 1.3983429899118848e-77 1.7916289070282604e-76 2.223961658997244e-75 2.5807481614697305e-74 2.697075003155642e-73 2.4323329528354406e-72 1.7679750889207433e-71 1.0025606797247928e-70 3.054932417031018e-70 1.1355744006022878e-69 8.354518826999671e-44 1.9046217631628167e-49 5.252537934250762e-08 1.3242094246402059e-34 3.0279516170603155e-36 2.700610227182851e-38 1.3303553259110726e-40 5.0606810457642705e-43 1.4786201632333398e-45 3.45054816719038e-48 6.611972288498309e-51 1.076862453834154e-53 1.5420258863778046e-56 2.0043603863739594e-59 2.4379974420366824e-62 2.864780088076672e-65 3.3764997393276726e-68 4.20338816017849e-71 5.987844702528949e-74 1.10697821984413e-76 3.219595369451224e-79 1.9187234145070884e-81 3.1711504699867607e-83 1.885286513970013e-84 4.561290356226231e-85 4.204255277748004e-85 1.168808074661589e-84 7.197836203155027e-84 7.384043616807563e-83 1.0196408391057796e-81 1.6460325314790192e-80 2.842414963263416e-79 4.954618738197177e-78 8.357929774189966e-77 1.3155767584718724e-75 1.8595530384196155e-74 2.260526630379629e-73 2.2030021612713683e-72 1.666104503485729e-71 6.6632688470623975e-71 3.132191478728795e-70 2.6554345663865823e-44 6.41191541584682e-50 1.8786067806282224e-08 4.2795974504700977e-35 7.971872335895143e-37 4.821595133030766e-39 1.6993911513996247e-41 4.677810033132163e-44 1.0033726387082874e-46 1.725684521926347e-49 2.439755925016358e-52 2.9290915185265998e-55 3.088586423886602e-58 2.9538182190974437e-61 2.643886032513601e-64 2.289985269436567e-67 1.9980003445903226e-70 1.8572198415353297e-73 2.007199070992979e-76 2.8949041410742766e-79 6.873933291925855e-82 3.578177894589893e-84 5.637900001618595e-86 3.5170243652597334e-87 9.745759502792052e-88 1.1007267234068438e-87 3.9251862462614793e-87 3.188701524672688e-86 4.3863413876481765e-85 8.195532501866078e-84 1.7989213142377194e-82 4.234596979353086e-81 1.0075068860510512e-79 2.321437721833116e-78 4.995262659383952e-77 9.67108571687221e-76 1.6154739312311445e-74 2.1855279975873697e-73 2.307586601388966e-72 1.344825020884436e-71 8.988052316245553e-71 1.0138459562756457e-44 2.5792854314789974e-50 8.97539617037473e-09 1.8551163864760888e-35 1.5831333622010606e-37 5.764435747724269e-40 1.294462494568969e-42 2.461803758284521e-45 3.758160333682127e-48 4.684103878280032e-51 4.8346605259566647e-54 4.251803871486409e-57 3.2883009279688963e-60 2.308420109938983e-63 1.5185988008704226e-66 9.69215012087032e-70 6.262020282172127e-73 4.3509033600151385e-76 3.5737834214978585e-79 4.03022192409591e-82 7.83256679735527e-85 3.568601095097767e-87 5.365322941409185e-89 3.509927844843187e-90 1.1119286545484904e-90 1.5353931894292598e-90 7.007735024925988e-90 7.4980904960942e-89 1.381716548868534e-87 3.492736205749204e-86 1.0431892752425692e-84 3.353286692011643e-83 1.0923541303264482e-81 3.455252086048362e-80 1.0245913801593307e-78 2.750298519937849e-77 6.451785981135367e-76 1.2449223157695399e-74 1.9907458140992495e-73 1.7012754089724986e-72 2.5334389020844113e-71 4.105962596924168e-45 1.3774043719131883e-50 5.561660034557807e-09 7.336318279558317e-40 4.3971855729669796e-42 1.6571110244747487e-44 3.7414032597438896e-47 7.257177732249023e-50 1.1264363134934589e-52 1.4248599156806052e-55 1.4897051989646315e-58 1.3251598679871253e-61 1.0355840511291866e-64 7.340536648297546e-68 4.873023278382453e-71 3.137244931792479e-74 2.0441055378999946e-77 1.431921040963725e-80 1.185598106066328e-83 1.3474988696054382e-86 2.639014026622162e-89 1.2114979722640512e-91 1.8349835243776465e-93 1.2091977145008636e-94 3.858255463321383e-95 5.3647791347177935e-95 2.465092338045669e-94 2.6545278547858785e-93 4.921771429760635e-92 1.2511919947278026e-90 3.7559690623491334e-89 1.2125036537313837e-87 3.962913840093906e-86 1.2560065752004236e-84 3.725070923905748e-83 9.978813095725378e-82 2.3299119829229183e-80 4.4566587768695275e-79 7.091176464350452e-78 5.8429951619074205e-77 1.0819340135430454e-75 2.901090729115499e-45 9.285337984401795e-51 3.5505299957028246e-09 1.157798552281698e-44 1.153086783658354e-46 4.4409349758788125e-49 1.05212699511135e-51 2.0998745067832664e-54 3.3361775935332967e-57 4.298384281363982e-60 4.5631215375436565e-63 4.1126352365312576e-66 3.2512150108881834e-69 2.3289297124051745e-72 1.5611679323355728e-75 1.0143004255716561e-78 6.666831843735567e-82 4.7094296431688713e-85 3.931309812538958e-88 4.5037260863680303e-91 8.888948321019669e-94 4.111923561121912e-96 6.274690071079701e-98 4.165055645933135e-99 1.3383813211102408e-99 1.8738503991345188e-99 8.66793896399069e-99 9.392972373112882e-98 1.7519884247413883e-96 4.477852304643147e-95 1.350596826920228e-93 4.376976679657149e-92 1.4342839754236977e-90 4.55059450578218e-89 1.3480533029087736e-87 3.596630878058595e-86 8.328664960742961e-85 1.5726089969122194e-83 2.4411224187052557e-82 1.9804729256422095e-81 3.2370471265071417e-80 2.0034760923724242e-45 6.423556167839159e-51 2.264283311214073e-09 2.1748125201823994e-49 2.5918481393127716e-51 1.1477734703174132e-53 2.89074239319937e-56 6.002944825586351e-59 9.801393963960761e-62 1.2894755685925602e-64 1.3920735356694782e-67 1.2725734510520593e-70 1.0185079160142222e-73 7.37687818570546e-77 4.995573528789891e-80 3.27648763000481e-83 2.172914608893361e-86 1.5482199516738134e-89 1.3031063388409716e-92 1.5049136169366486e-95 2.993516805161241e-98 1.3953739100320744e-100 2.1453669584816378e-102 1.4344779117412483e-103 4.642412376865604e-104 6.544376099819548e-104 3.0475377503673523e-103 3.323301241463361e-102 6.235099908546498e-101 1.6021169492091938e-99 4.8546769642274e-98 1.5791549468314691e-96 5.1870396815586796e-95 1.6467992365865379e-93 4.869797540085209e-92 1.2926535755513807e-90 2.963730874702929e-89 5.497644457593437e-88 8.28634624537581e-87 6.33730549859732e-86 9.259624721773971e-85 1.3848138086703355e-45 4.439752684914939e-51 1.444003830603169e-09 4.085870738067744e-54 5.8138986777337e-56 2.9581927314452896e-58 7.916942103906794e-61 1.7110292531231504e-63 2.872114025145971e-66 3.859797540099917e-69 4.239288250916175e-72 3.932127315412188e-75 3.1872163819321454e-78 2.334853712725927e-81 1.5975320474473613e-84 1.0579428484270246e-87 7.079988603463139e-91 5.088518017070685e-94 4.3186084460933686e-97 5.028045357555349e-100 1.0080619653889394e-102 4.735176420125276e-105 7.334752988242296e-107 4.940454712250384e-108 1.6103957006359623e-108 2.2858688976351516e-108 1.0715976356319655e-107 1.176007286010701e-106 2.2196147735280584e-105 5.734727963449063e-104 1.7459689247108452e-102 5.701170624204592e-101 1.8775351589393063e-99 5.96613270843235e-98 1.7617302088435877e-96 4.6541571633566607e-95 1.0568278980043203e-93 1.926525469394904e-92 2.8199111311600525e-91 2.0325605472801812e-90 2.6526191760281244e-89 9.571910000346285e-46 3.068612368467395e-51 9.21881032982653e-10 6.441105089609376e-59 1.5171541935954287e-60 7.854378507750206e-63 2.204805208318933e-65 4.906402865239025e-68 8.440313901102672e-71 1.1568229209916738e-73 1.2917555200721269e-76 1.2153033758382616e-79 9.975029653919447e-83 7.390039150156878e-86 5.108740023369465e-89 3.415772847997448e-92 2.3068664741822047e-95 1.672437794259117e-98 1.4312246326157387e-101 1.6799130417263197e-104 3.394834040040315e-107 1.6069683506391874e-109 2.5079576733973673e-111 1.701827853294751e-112 5.587552655277653e-113 7.986997631070776e-113 3.7697448468398237e-112 4.1640910181461805e-111 7.907755451635822e-110 2.0547924527649335e-108 6.28805017856477e-107 2.0621511963930988e-105 6.813322385862033e-104 2.1689666174174497e-102 6.402946773389601e-101 1.686417931588784e-99 3.802115577344263e-98 6.848163821745012e-97 9.784744266986585e-96 6.938512778739057e-95 7.976710129430742e-94 6.610487691822164e-46 2.1227942929439297e-51 5.704981917198475e-10 2.5558567191002006e-63 4.154155130607146e-65 2.2202113517194685e-67 6.263668910352039e-70 1.4241881820317326e-72 2.496737846777732e-75 3.481466741391112e-78 3.9467061036788224e-81 3.7629458686080926e-84 3.1256748585950304e-87 2.3409405798883543e-90 1.6346410232643855e-93 1.1033264248139596e-96 7.518749513885404e-100 5.497786877513951e-103 4.744348590098063e-106 5.613741315563674e-109 1.1434764671254415e-111 5.454503861720741e-114 8.577416614259168e-116 5.863951671047008e-117 1.9393706618641626e-117 2.7919948000149417e-117 1.326977809858741e-116 1.4757003815458575e-115 2.8205935131741557e-114 7.37437958474071e-113 2.269525115401084e-111 7.48079480824484e-110 2.482273485049826e-108 7.927710802589607e-107 2.344287277914797e-105 6.172396250999563e-104 1.3877965208881762e-102 2.482504514722408e-101 3.533532407892281e-100 2.417985788225192e-99 3.4260074569548947e-98 4.66748366108439e-46 1.4322750470634006e-51 2.6699332777017705e-10 1.0795413892246779e-63 7.376300430612607e-66 2.1531526567755776e-68 3.4410852978869884e-71 4.87440526893089e-74 5.555350122254963e-77 5.221376517806384e-80 4.0842026259068384e-83 2.7343838161987964e-86 1.6162609960540337e-89 8.712265171193761e-93 4.428631458673093e-96 2.206422502115983e-99 1.1321492721403288e-102 6.427301771236117e-106 4.514404067033911e-109 4.653744059079254e-112 9.009429326390662e-115 4.491569542732083e-117 8.052282457487708e-119 6.714965088728481e-120 2.8368648266999764e-120 5.3690989235941175e-120 3.411621491073584e-119 5.1208479819360345e-118 1.3276353783518708e-116 4.719290665799657e-115 1.9761904494662674e-113 8.859982291598164e-112 3.994474403374494e-110 1.7307405384943616e-108 6.933768133252368e-107 2.472035945211306e-105 7.55397443640052e-104 1.8477585733309082e-102 3.751600624986231e-101 3.5753497598663907e-100 1.0210500741258678e-98 1.9475372690872575e-46 7.758283102016483e-52 8.718052883110976e-11 3.124841854329983e-64 1.6693008575369602e-66 2.968564570656191e-69 3.0631338957461956e-72 2.842013464534007e-75 2.18802553185014e-78 1.4165701254428119e-81 7.759