# vtk DataFile Version 3.0
vtk output
ASCII
DATASET RECTILINEAR_GRID
DIMENSIONS 41 41 1
X_COORDINATES 41 double
0 1 2 3 4 5 6 7 8 9 10 11 12 13 14 15 16 17 18 19 20 21 22 23 24 25 26 27 28 29 30 31 32 33 34 35 36 37 38 39 40 
Y_COORDINATES 41 double
0 1 2 3 4 5 6 7 8 9 10 11 12 13 14 15 16 17 18 19 20 21 22 23 24 25 26 27 28 29 30 31 32 33 34 35 36 37 38 39 40 
Z_COORDINATES 1 double
0
POINT_DATA 1681
FIELD FieldData 1
Concentracao 1 1681 double
1.0 1.0 1.0 1.0 1.0000000000000002 1.0 0.9999999999999999 0.9999999999999998 0.9999999999999998 0.9999999999999991 0.9999999999999993 0.9999999999999993 0.9999999999999986 0.9999999999999982 0.9999999999999981 0.9999999999999979 0.9999999999999978 0.9999999999999977 0.9999999999999973 0.9999999999999968 0.9999999999999962 0.9999999999999961 0.9999999999999959 0.9999999999999958 0.999999999999995 0.9999999999999934 0.9999999999999862 0.9999999999999504 0.9999999999997721 0.9999999999989145 0.99999999999485 0.9999999999754081 0.9999999998787372 0.9999999993581007 0.9999999961332567 0.99999997101849 0.9999996907526612 0.9999943948398853 0.9998012375254391 0.9870044991255565 0.00012080705424418308 1.0 1.0 1.0000000000000004 0.9999999999999999 0.9999999999999997 0.9999999999999996 0.9999999999999993 0.9999999999999987 0.9999999999999981 0.999999999999998 0.9999999999999969 0.9999999999999962 0.9999999999999953 0.9999999999999951 0.9999999999999944 0.9999999999999938 0.9999999999999933 0.9999999999999929 0.9999999999999927 0.9999999999999916 0.9999999999999912 0.9999999999999911 0.9999999999999906 0.9999999999999892 0.9999999999999889 0.9999999999999876 0.99999999999998 0.9999999999999414 0.9999999999997525 0.9999999999988589 0.9999999999946881 0.9999999999750837 0.9999999998794208 0.9999999993738371 0.9999999962949931 0.9999999726040337 0.9999997092884252 0.9999947046224485 0.9998094698318726 0.9872913865310954 0.00012083402615704626 1.0 1.0 1.0000000000000002 1.0000000000000002 1.0 0.9999999999999996 0.9999999999999996 0.9999999999999989 0.9999999999999988 0.9999999999999982 0.9999999999999978 0.9999999999999977 0.9999999999999972 0.9999999999999964 0.999999999999997 0.9999999999999962 0.9999999999999953 0.9999999999999949 0.9999999999999949 0.9999999999999947 0.9999999999999944 0.9999999999999938 0.9999999999999929 0.999999999999992 0.9999999999999917 0.99999999999999 0.9999999999999813 0.9999999999999379 0.9999999999997297 0.9999999999987772 0.9999999999944994 0.9999999999751992 0.9999999998847747 0.9999999994240775 0.9999999966959455 0.9999999760122592 0.9999997458030055 0.9999952917713844 0.9998251848163191 0.9878558076706183 0.00012086709743659611 1.0 1.0 0.9999999999999998 1.0 1.0000000000000002 0.9999999999999996 0.9999999999999996 0.999999999999999 0.9999999999999987 0.999999999999998 0.9999999999999974 0.9999999999999968 0.9999999999999968 0.9999999999999972 0.9999999999999967 0.9999999999999964 0.9999999999999953 0.9999999999999953 0.9999999999999944 0.9999999999999937 0.9999999999999933 0.9999999999999936 0.9999999999999927 0.9999999999999922 0.999999999999992 0.9999999999999889 0.9999999999999776 0.9999999999999227 0.9999999999996753 0.9999999999986061 0.9999999999941038 0.9999999999751461 0.9999999998922383 0.9999999994949688 0.9999999972455256 0.9999999805456022 0.9999997936767159 0.9999960705204349 0.9998468081651509 0.9886792053754523 0.00012090468899097867 1.0000000000000002 0.9999999999999998 0.9999999999999997 0.9999999999999998 0.9999999999999999 0.9999999999999998 0.9999999999999992 0.9999999999999993 0.9999999999999986 0.9999999999999983 0.9999999999999974 0.9999999999999968 0.9999999999999969 0.9999999999999966 0.999999999999996 0.9999999999999953 0.9999999999999947 0.9999999999999942 0.9999999999999927 0.999999999999992 0.9999999999999925 0.999999999999992 0.9999999999999913 0.9999999999999911 0.9999999999999905 0.999999999999986 0.9999999999999681 0.9999999999998874 0.999999999999551 0.9999999999982143 0.9999999999930959 0.9999999999736909 0.9999999998976048 0.9999999995679747 0.9999999978361168 0.9999999854201436 0.999999845524955 0.999996939998381 0.9998724582423852 0.9897332386705993 0.00012094480219335085 1.0000000000000002 0.9999999999999996 0.9999999999999997 0.9999999999999996 0.9999999999999994 0.9999999999999997 0.9999999999999992 0.9999999999999991 0.9999999999999991 0.9999999999999983 0.9999999999999972 0.9999999999999966 0.999999999999997 0.9999999999999968 0.9999999999999964 0.9999999999999962 0.9999999999999966 0.9999999999999958 0.9999999999999949 0.9999999999999949 0.9999999999999942 0.9999999999999929 0.999999999999992 0.9999999999999918 0.99999999999999 0.9999999999999829 0.9999999999999467 0.9999999999997965 0.9999999999992206 0.9999999999971658 0.999999999990235 0.9999999999675724 0.9999999998923963 0.999999999617487 0.9999999983571713 0.9999999899189612 0.9999998945374887 0.9999978034730594 0.9998998591860447 0.9909978581321125 0.00012098519861519228 1.0000000000000002 0.9999999999999996 0.9999999999999996 0.9999999999999996 0.9999999999999991 0.9999999999999992 0.999999999999999 0.9999999999999982 0.9999999999999983 0.9999999999999979 0.9999999999999977 0.999999999999997 0.9999999999999964 0.9999999999999962 0.999999999999996 0.9999999999999944 0.9999999999999947 0.9999999999999939 0.9999999999999929 0.9999999999999925 0.9999999999999925 0.9999999999999916 0.9999999999999916 0.9999999999999896 0.9999999999999837 0.999999999999955 0.9999999999998392 0.9999999999994071 0.9999999999979314 0.9999999999932908 0.9999999999798159 0.9999999999432372 0.9999999998473209 0.999999999583036 0.9999999986643727 0.9999999934443222 0.9999999355629806 0.9999985737571089 0.9999272919985525 0.992388270658547 0.00012102326472917747 1.0000000000000002 0.9999999999999996 0.9999999999999991 0.9999999999999988 0.9999999999999986 0.9999999999999979 0.9999999999999973 0.9999999999999967 0.9999999999999963 0.9999999999999957 0.9999999999999937 0.9999999999999915 0.9999999999999885 0.9999999999999861 0.9999999999999827 0.999999999999978 0.9999999999999728 0.9999999999999662 0.9999999999999581 0.99999999999995 0.9999999999999398 0.9999999999999275 0.9999999999999127 0.9999999999998829 0.9999999999998043 0.9999999999995475 0.9999999999986882 0.9999999999959501 0.999999999987851 0.9999999999658626 0.9999999999115317 0.9999999997900946 0.9999999995445642 0.9999999990833849 0.9999999981592425 0.9999999950267665 0.9999999649763466 0.999999198400924 0.9999516235408182 0.9940382355749836 0.00012105675132848336 1.0000000000000002 0.99999999999469 0.999999999984462 0.999999999970595 0.9999999999537289 0.9999999999323046 0.9999999999041936 0.9999999998663108 0.9999999998177076 0.9999999997565738 0.9999999996811046 0.9999999995896199 0.9999999994806295 0.9999999993528577 0.9999999992052689 0.9999999990370565 0.9999999988476187 0.9999999986365238 0.9999999984034621 0.999999998148183 0.9999999978704096 0.9999999975697049 0.9999999972452105 0.9999999968950783 0.9999999965152068 0.9999999960963936 0.9999999956182273 0.9999999950369974 0.9999999942645219 0.9999999931382868 0.999999991395781 0.9999999886929406 0.9999999847360173 0.9999999795786543 0.9999999739523471 0.9999999689185396 0.9999999567557034 0.9999996214761855 0.9999738287517486 0.9951993065564155 0.00012108267894237978 0.99999999999774 0.9999970393892968 0.9999945526569382 0.9999924592497893 0.999990410494719 0.9999883452748478 0.9999861550958449 0.9999837148658297 0.9999810619284545 0.9999781943811323 0.9999751174808098 0.9999718420694536 0.9999683833353566 0.9999647590365752 0.999960988007341 0.9999570890558128 0.9999530803392374 0.9999489787047144 0.9999447993975165 0.9999405557340902 0.9999362593294281 0.9999319199418366 0.9999275455160934 0.9999231425504748 0.999918716432713 0.9999142724879233 0.9999098182733422 0.9999053688208832 0.999900956635568 0.9998966515299994 0.9998925944757623 0.999889051058587 0.9998864836910387 0.9998856196726252 0.9998875018887661 0.9998932510070975 0.999904494696413 0.999919335727261 0.9999370271459249 0.9979591253095353 0.00012109992427438748 0.9999996216879007 0.019160666264630304 0.013011758369683131 0.013153644171705302 0.012916341552699906 0.012853338910175142 0.012735626864725897 0.012580428441574313 0.012388322763012523 0.012170244406659009 0.011932851267172058 0.011683139415202815 0.01142519822843692 0.011162240879556704 0.01089604498213316 0.010628851431558756 0.010361572256472539 0.010095051101723521 0.009830080736592674 0.009566851561493235 0.009305572506979746 0.009047006622488937 0.008791390522535443 0.008538007067248403 0.008288298195558819 0.008041299643702983 0.007798708037645464 0.007559550055353712 0.007325108424678672 0.007096125057727988 0.006873425975914445 0.006658065062313826 0.006451863660003268 0.006256995005073092 0.006077995277761937 0.005912777983185854 0.005814033945315307 0.005569096681942524 0.007063564053520088 0.9979143162785022 0.00012110940498291826 0.9999992653730937 0.00038251533893471866 8.017940368127616e-05 8.093321774736312e-05 8.151356973754236e-05 8.14982630930866e-05 8.060568440023304e-05 7.89916764740775e-05 7.683979500189561e-05 7.432728507200262e-05 7.158846591914119e-05 6.872264722446221e-05 6.5800512089708e-05 6.287031760246254e-05 5.99640344309412e-05 5.7106003268589e-05 5.431706605048334e-05 5.1600031860874217e-05 4.896578288454373e-05 4.641528460811258e-05 4.395201690468303e-05 4.1581402069787546e-05 3.9301045983410414e-05 3.710489067583317e-05 3.50011788323258e-05 3.298537373071234e-05 3.1058641376206593e-05 2.9216232576863163e-05 2.74648916000421e-05 2.5802920929775643e-05 2.4232224561997017e-05 2.275541264570447e-05 2.137498197794127e-05 2.0094889932618504e-05 1.8921128727229828e-05 1.7850530292176768e-05 1.6931786963281007e-05 1.5873573614406024e-05 0.00017217113533694997 0.9978779021535714 0.00012111822557337831 0.9999989080137923 0.00031110744597849803 3.307079533350089e-07 3.2073286020284315e-07 3.3587537312298533e-07 3.4138408092898877e-07 3.385189476107558e-07 3.301239109746158e-07 3.1789358594309424e-07 3.0325877913034656e-07 2.8728582368771597e-07 2.706961635896802e-07 2.540070688717836e-07 2.3754210244489436e-07 2.2154035310017646e-07 2.0613281617700803e-07 1.9143157706880067e-07 1.774480239932432e-07 1.6422481901466014e-07 1.5173569257345557e-07 1.399887051942069e-07 1.2898405069931703e-07 1.186733124090728e-07 1.0902232275259167e-07 1.0002599431323017e-07 9.165459323084511e-08 8.387350748531774e-08 7.665215639728553e-08 6.9978148535732e-08 6.382912044785137e-08 5.817882453982108e-08 5.3008491875316464e-08 4.8297305450899156e-08 4.4017659520291594e-08 4.014435870750068e-08 3.657795615055755e-08 3.331921103293961e-08 4.174829126754453e-08 0.0001545238742315069 0.9978431432534248 0.00012112717794808383 0.9999985509158095 0.001042988496985026 8.433123723943126e-07 4.783727016837855e-08 4.685541943711225e-08 4.584802246366107e-08 4.4513364853970306e-08 4.284380915237991e-08 4.0839503981889543e-08 3.8519974319587624e-08 3.592525113808763e-08 3.311350791816131e-08 3.015527236319338e-08 2.7125396342767437e-08 2.4095678590428392e-08 2.1129901047478982e-08 1.828155436372167e-08 1.5592780191883044e-08 1.3096018094012808e-08 1.0814666422735914e-08 8.764775048753223e-09 6.95572856226677e-09 5.390389203537301e-09 4.065434994204757e-09 2.971446442524749e-09 2.0932879228803655e-09 1.4110316435845869e-09 9.013779917659178e-10 5.392513026565888e-10 2.9951257371795574e-10 1.5838193882143046e-10 1.2918078788493414e-10 2.2109151409450587e-09 4.023652305758269e-09 5.201105100931842e-09 5.961635820670456e-09 6.467124059336066e-09 7.600107268665809e-08 0.0004780806476274 0.9978090172140991 0.00012113623739768181 0.9999981972775506 0.007812188359816306 0.00031679781305858266 0.0003045835250730609 0.0003019489475990642 0.0002984526808177639 0.0002939283480884603 0.00028824507711330697 0.00028129722440299837 0.0002730272974328304 0.0002634379558361645 0.0002525923945398736 0.00024060365782498246 0.00022761583428316693 0.00021378303781930443 0.00019925345922216573 0.00018415881469193796 0.00016860931706641095 0.00015270021607772198 0.00013652448605310695 0.00012019308849207268 0.00010385931107000719 8.773464243692111e-05 7.209528094997587e-05 5.726773778275841e-05 4.359973044890772e-05 3.142274746872579e-05 2.101485502229108e-05 1.2576554180678011e-05 6.2269187850225145e-06 2.02040670041197e-06 9.016642857395326e-07 4.154956196825605e-05 6.364447420210546e-05 7.428992855349732e-05 8.026170817691375e-05 8.392942204232145e-05 8.660668788028248e-05 0.001099731606780013 0.9977664582478987 0.00012114537473528884 0.9999981972530593 0.9999697612381504 0.9999232798157119 0.9998445900223507 0.9997317682299003 0.9995769704960316 0.9993740294116931 0.9991169909421195 0.9988015840627442 0.9984259111327165 0.9979909442704539 0.9975005197726293 0.9969606527794361 0.9963784785070026 0.9957590912413279 0.995092487936369 0.994305136081711 0.9931288997446721 0.9908428055792633 0.9859051374162806 0.9756117619225467 0.9560167156692868 0.92232538955678 0.8698165711939089 0.7950909072418649 0.697284937540935 0.5788862131839624 0.44593332846975936 0.3077000204420168 0.17627481698758513 0.06673530355903183 0.017473745761668127 0.5037527145152988 0.5712589184071565 0.5773752387550398 0.5787956389181264 0.5794030484536687 0.5797224658314271 0.5799010499952889 0.5800491389110122 0.00012095029121887298 0.9999981972146524 0.9999780706092831 0.9999598553863991 0.9999267937576506 0.9998794383143579 0.999813490216192 0.999726979721532 0.9996186675355929 0.9994894013010585 0.9993421071862799 0.9991816820817409 0.9990142832103758 0.9988463303920927 0.998683244110899 0.9985262885752149 0.9983584656983157 0.9980922669250535 0.9974302715212686 0.995595619656323 0.9909592579360813 0.9807121945639002 0.9608238082845534 0.9264928781229012 0.8731163545077995 0.7975458550005082 0.6992553852864594 0.5810244035804258 0.449023648641619 0.31232506214066097 0.18239661056852224 0.07322453366711258 0.01237232931895836 0.48820813963172127 0.5568304421709029 0.5532320398348396 0.5412506264830299 0.5238149010536609 0.49832091375783005 0.4612567297985795 0.37618910427507407 0.00012042516513813933 0.9999981971556706 0.9999834754779913 0.9999693628581267 0.9999495914804546 0.9999205666827742 0.9998805317255401 0.9998279629164536 0.999762714911804 0.9996860835934657 0.9996009105280925 0.999511175795214 0.9994212803863468 0.9993352435439165 0.9992557171225716 0.9991805705604588 0.9990858903493701 0.9988643752639602 0.9981683067683986 0.9961226724667035 0.9909579012517568 0.9797349440085852 0.9584047262674574 0.9223763424808522 0.8675384036097397 0.7914485120377227 0.6942845468157565 0.579246217767515 0.45228495393235557 0.321478072013638 0.1964957260970031 0.08896543530889252 0.01965267634996145 0.45719424802647685 0.546485840640721 0.5375740728058045 0.5173950825701463 0.4899760589862621 0.45283157513542643 0.3988557349009143 0.29048998870951853 0.00011944067825737505 0.999998197081451 0.9999860125691725 0.9999744041609362 0.9999591312113355 0.9999378771654884 0.999908825978208 0.9998711124614924 0.9998248764778164 0.9997715165196316 0.9997135180994271 0.9996540171981084 0.9995961636019737 0.9995425016746046 0.9994940413599651 0.9994454042928744 0.999360828664508 0.9990936446342631 0.9981982354376452 0.9956194735567481 0.9893484249234907 0.976251161439429 0.9523031971314213 0.913317049264537 0.8560130888210529 0.7790625171693704 0.6836961274534405 0.573651078860405 0.4545377805098686 0.3330015507343721 0.2162637746615039 0.11275365066362786 0.03721129754048798 0.36603647215064017 0.5394206352534375 0.5303989926655863 0.5055302052981214 0.4726159531340049 0.42931678450990945 0.36618795256390074 0.25270094570447355 0.00011813483597369042 0.999998196995191 0.9999873213922766 0.9999768646736062 0.9999637349602284 0.9999460034304366 0.9999223547535601 0.9998922368205649 0.9998560970641259 0.9998153825082069 0.9997723031492369 0.9997293544394895 0.9996887871065299 0.9996521347773953 0.9996187977566772 0.9995771034325514 0.9994648133476838 0.9990531458122148 0.9977109325255109 0.994073924974511 0.9857676821983632 0.9694191916679492 0.9411358261053993 0.8974167075769741 0.8362070330293409 0.7576585769994122 0.6642957022136491 0.5604634719827076 0.4513451971013439 0.34201744358284325 0.23706338589469864 0.14138342603868914 0.06400716981687338 0.2543216918782247 0.47747249019120647 0.5244118387874102 0.5044630336614231 0.46888238098226875 0.42263094661585937 0.35621102189833825 0.24056763161424904 0.00011665180461323747 0.999998196902433 0.9999877009833686 0.99997764749963 0.9999652864375962 0.9999490526337181 0.9999280079839499 0.9999020315110413 0.9998718785534096 0.9998390751942794 0.9998055761197989 0.999773318048336 0.9997438115740134 0.9997175659043552 0.9996903015719272 0.9996318583900632 0.9994110727759179 0.9986160682554066 0.9962592480205088 0.9904656986649354 0.9783626772514098 0.956385329592326 0.9210552500558231 0.870012709585567 0.8028959191803697 0.7216659281053094 0.6302237198074149 0.5334309525808606 0.4359431111775169 0.3412949155105686 0.25164552212089675 0.16858989802219074 0.0959987417475048 0.1722231442273548 0.36351616855408314 0.4770664134872486 0.4977110963973424 0.4730998335679242 0.42809788375922714 0.3611710683018935 0.24478342803757727 0.000115168076611702 0.9999981968094546 0.9999872043366185 0.999976530134417 0.9999637281930285 0.9999475543019554 0.9999276445692857 0.9999040393924076 0.9998779409588698 0.9998509171012303 0.9998245834286081 0.9998002779068913 0.9997786059266073 0.9997567932856186 0.9997128279945623 0.9995447095174049 0.9989151301088856 0.9969790651378612 0.9920715936686322 0.9815562098908069 0.9620625074648504 0.9301967004688046 0.8835596314657553 0.8216646528061478 0.7463650809121287 0.6615650007965591 0.5723062950968767 0.48357212413821177 0.3992027425657142 0.3212495741725059 0.24992337901936418 0.18427879911106473 0.12413666710138574 0.13197690620834826 0.24638992612124527 0.3769689418354308 0.45177467883935934 0.4656875391614007 0.43752773294640646 0.37573394454338005 0.25828116379109334 0.00011382815581000723 0.9999981967225903 0.999985107953556 0.9999723712931458 0.999957240859438 0.9999398134454498 0.9999202014598445 0.9998987227911593 0.9998764170541861 0.9998546196925046 0.9998344760771759 0.9998154264346238 0.9997896310755288 0.9997169827543474 0.9994479190420985 0.9985517747791107 0.9960455404094704 0.990117081765083 0.9780400724803701 0.956484036833757 0.9222678353905178 0.873349593148533 0.8096908927015237 0.7335865005178751 0.6493195042731308 0.5622381538710984 0.4776030910295444 0.39956951003809815 0.3305719562006474 0.2711485906183387 0.2201482095950571 0.17524727003132592 0.1339823718527544 0.11705162264926178 0.16145390104443863 0.2554244225098143 0.351329118051166 0.41287590365346194 0.4273824935372685 0.39053093366090047 0.28285894532136585 0.00011274819130251616 0.999998196647382 0.9999807810941158 0.9999595250356612 0.999938303303993 0.9999163732025257 0.9998920771286945 0.9998636892354256 0.9998283850226162 0.9997797032262464 0.9996883672836692 0.9994447000460018 0.9988347845578526 0.9973786990751262 0.9941412317833721 0.987530988513841 0.9752132531035744 0.9542914099359172 0.9218401527074488 0.8756962258975332 0.815262659339258 0.7420049425889282 0.6593889005265102 0.5722871497762719 0.48601247406184056 0.4053367038435748 0.3337517933441326 0.2731499402033832 0.2238714597797821 0.18500291529994498 0.15473913671944226 0.13069226702424622 0.11021781142333716 0.09669439974706746 0.10592865735534265 0.14959232715131557 0.2203744796807615 0.2965799423121041 0.35704898513839944 0.37552193284738794 0.29998280973528746 0.00011195537177190331 0.9999981955222506 0.9987529855389085 0.9974326840198848 0.9960049592210604 0.9943169445219177 0.9922237715377944 0.9895494381819271 0.9860769867049811 0.9815071832850315 0.975371615283626 0.9647277930079482 0.949582226418581 0.9285095312573406 0.899892560989716 0.8621820048908783 0.8142575432832595 0.7558240119762978 0.6877383226280628 0.6121227805185522 0.5321864949879286 0.4517651343602708 0.3747133199119553 0.3043120677083187 0.24285027419141736 0.1914603312414859 0.15020031523378674 0.11831793898260183 0.09457229950327554 0.07753079911939263 0.06576940331338135 0.05795146379325752 0.05280803128438264 0.04994348031091649 0.05219107449799191 0.06546558805065172 0.09467594401663972 0.14140072071618098 0.1963975525430667 0.26971491473965503 0.282405515563368 0.00011147789308707919 0.9999977112418329 0.013839943374988596 0.008930258762598398 0.00870312383003215 0.00825195129660598 0.00791768462781009 0.007537079587937382 0.007115949623406957 0.006652800770449954 0.006152705344234319 0.005626223957148284 0.005084976846295944 0.004537091504509105 0.003991482010027299 0.0034573547756801956 0.002944055703410782 0.002461247578973352 0.0020177721827982394 0.0016210639014290573 0.0012760488113340814 0.0009846868391205036 0.0007460679440705182 0.0005565125047609972 0.00041031933141329104 0.0003007672092154296 0.00022083106820029952 0.00016396467033753147 0.0001244275808274213 9.756427785823431e-05 7.97276100208776e-05 6.8113681923317e-05 6.049100229275104e-05 5.670688736855668e-05 6.694339726008083e-05 0.00011815181547894967 0.00024372675957040683 0.0004731849599821811 0.0007595965411970124 0.001576124386194393 0.2822164136812879 0.00011121326484725066 0.9999972582127372 0.00033271738963390224 3.906235707150349e-05 3.7025600849056746e-05 3.511566157707886e-05 3.298332830061484e-05 3.0455194266504324e-05 2.7614640846152732e-05 2.4572966700980696e-05 2.1463884491150854e-05 1.8514945449117554e-05 1.5717554641689732e-05 1.3122486652142127e-05 1.0769017258993291e-05 8.68164745614724e-06 6.869701690343244e-06 5.333303680630863e-06 4.060430341423815e-06 3.031826146270449e-06 2.221444728421157e-06 1.598919973094294e-06 1.1329232963475342e-06 7.927107440232994e-07 5.502150277078017e-07 3.8118885084290546e-07 2.6566132406376273e-07 1.8813655943694353e-07 1.3685946456850158e-07 1.034202674532086e-07 8.187789911207858e-08 6.808106998084598e-08 5.906442509932208e-08 5.507001928394084e-08 7.658627936850814e-08 1.8829459334274562e-07 4.878872687528623e-07 1.0698198303633378e-06 1.8677822199809888e-06 3.7107734616509316e-05 0.2820165803048953 0.00011096937479248638 0.9999968038642222 0.000294966354540917 1.427987630249741e-07 1.0375265469277522e-07 1.0024552163180974e-07 9.368876006463754e-08 8.469011935327037e-08 7.433330122021384e-08 6.342438332709558e-08 5.276289211818065e-08 4.3383464275925404e-08 3.4984316275146615e-08 2.7667852772002804e-08 2.1459944316772356e-08 1.6325027702444755e-08 1.21782982322557e-08 8.908918781476537e-09 6.392212739542621e-09 4.50070348885619e-09 3.112976059025266e-09 2.1184137410555325e-09 1.4218059117910326e-09 9.445662671000645e-10 6.241557245437762e-10 4.130126647171794e-10 2.758993871031899e-10 1.8802643962142886e-10 1.3218828499758747e-10 9.695112225807496e-11 7.478938184079954e-11 6.077376264995096e-11 5.162394298603161e-11 4.794027724676271e-11 8.000569513738592e-11 2.5817003007175324e-10 7.721606091527556e-10 1.8132957518822923e-09 5.446440833836128e-09 3.335162114672124e-05 0.2818185002284227 0.00011072475657630697 0.999996349791595 0.0009031460493786848 6.156127810684584e-07 4.213161118869477e-08 4.1230089424438374e-08 4.0374159382847506e-08 3.941699896251342e-08 3.8387267880197285e-08 3.730854160510233e-08 3.6200212729856614e-08 3.507817614284129e-08 3.3951159031654745e-08 3.282675214783309e-08 3.171035315209085e-08 3.0605691626528474e-08 2.951527271442066e-08 2.8440675171626463e-08 2.7382785999564254e-08 2.634200951904003e-08 2.531829780235319e-08 2.431120772925115e-08 2.331988473682449e-08 2.234300891822388e-08 2.137866947151324e-08 2.042409523444857e-08 1.94753753086788e-08 1.8526860555017948e-08 1.7570193783629113e-08 1.6592628639431292e-08 1.5573482243977297e-08 1.4476402491343599e-08 1.3228417138216178e-08 1.1645415721527299e-08 8.967445624054055e-09 4.228132206979471e-10 9.795258661681981e-10 1.1375108307981887e-09 1.7864050657330396e-08 0.00012267400178765067 0.28162132641118776 0.00011048013149290585 0.9999958994114441 0.0060757273594107195 0.0002967979117212842 0.0002883363240412919 0.00028578962433222627 0.00028280711032713154 0.0002794551918508968 0.0002758122932944825 0.0002719427445540826 0.0002678997817515773 0.0002637255461201692 0.0002594528938779674 0.00025510668821265793 0.0002507055646013461 0.0002462630157892805 0.00024178893593457807 0.0002372899115857166 0.0002327698993584698 0.00022823088986543742 0.00022367281945287856 0.00021909339207264015 0.00021448798146070404 0.00020984907940651195 0.00020516532599198307 0.0002004197385167921 0.00019558750454747376 0.00019063175332995113 0.0001854962462319612 0.00018009252601282842 0.00017427257897129937 0.00016776685644876176 0.00016001060948748818 0.00014948500285638192 0.00012889425966090072 8.798457662087724e-06 1.637403834969551e-05 1.788103916379017e-05 1.865167638230634e-05 0.00027995434684546376 0.2814220490657834 0.00011023619789879576 0.9999958993522226 0.9999676598746579 0.9999240365632769 0.999855981744226 0.9997681014025854 0.9996614291432223 0.9995388111840544 0.9994028444796763 0.9992559690688758 0.999100269093018 0.9989374515164599 0.9987688759271022 0.9985955916219833 0.9984183920916178 0.9982378662200498 0.9980544582421655 0.9978684457737114 0.99768003148186 0.9974892968601499 0.9972962582142098 0.9971008197292812 0.9969027827915234 0.9967018257332959 0.9964974523342339 0.9962889116362825 0.996075100926309 0.9958543700508539 0.9956241869055039 0.9953805613462594 0.9951167722293646 0.994820510376825 0.9944654902786617 0.9939690347956962 0.9909631323072156 0.11963973331974839 0.15859233041971296 0.16153263574418958 0.1628470159897333 0.16356559062889245 0.1643852929606592 0.00010992705297739452 0.9999958992506084 0.999976478466225 0.9999609988439044 0.999937463885169 0.999910404230375 0.9998808353978961 0.9998507580984617 0.9998215240536766 0.9997941804013398 0.9997693574706993 0.9997473501381104 0.9997281852470975 0.9997116965480325 0.9996975831460347 0.9996854508483052 0.9996748350860155 0.9996652019767579 0.99965593001869 0.9996462692956132 0.9996352734764541 0.9996216982682138 0.9996038525132348 0.9995793857258833 0.9995449829270603 0.9994959303540035 0.9994254815881676 0.999323968216553 0.9991774748262059 0.9989658737272074 0.9986597812357192 0.9982153369966469 0.9975631972807675 0.9965664204544679 0.9930884899696386 0.11240982174910133 0.1532361335582087 0.15041052130829918 0.14369704927956875 0.13317478221068935 0.10933893280333215 0.00010934789048072199 0.9999958990752481 0.9999826270908776 0.9999713653037318 0.9999593198461929 0.9999460560152176 0.9999326883299827 0.999919936249821 0.9999083782139475 0.999898308084968 0.9998898120616436 0.9998828216499537 0.9998771770861258 0.9998726745184042 0.9998690993430411 0.9998662439419574 0.9998639167512193 0.9998619414054081 0.9998601515923798 0.9998583797934333 0.9998564402212493 0.9998541018183635 0.9998510439520937 0.9998467792176183 0.9998405138218396 0.9998308905832831 0.9998155022856083 0.9997899811923737 0.999746277319724 0.9996694405958807 0.9995316471555017 0.9992811690972798 0.9988214682120501 0.9979589043329326 0.9949165642166677 0.27223946471161375 0.15052385514336822 0.14456190056794818 0.13411790252831876 0.11870264804126028 0.08736578446019051 0.00010840850168267734 0.9999958988228863 0.9999860034353915 0.9999777184687241 0.9999695713668012 0.9999615751258224 0.9999539531265769 0.9999470434083567 0.9999410400204318 0.9999360103698439 0.9999319168791815 0.9999286587667938 0.999926106752869 0.9999241266786524 0.9999225934165982 0.9999213965542444 0.9999204414346493 0.999919646712387 0.9999189405562059 0.9999182555824084 0.999917522293569 0.9999166608929678 0.999915569151149 0.9999141018625913 0.9999120332114011 0.9999089796337178 0.9999042319633661 0.999896371871146 0.9998823730479166 0.9998554780402876 0.9998002317432784 0.999681090939465 0.9994170311244143 0.998820069599252 0.996558352463356 0.4922085656697602 0.19118081363659917 0.14303867831638245 0.13080650309230402 0.11289922337939473 0.07965142093410595 0.00010727423284614498 0.9999958984715235 0.9999883635282214 0.9999819504149815 0.9999760419570858 0.9999705656387464 0.9999656294033898 0.9999613304797991 0.9999577160848507 0.9999547672056278 0.9999524193460935 0.9999505843878213 0.9999491686026906 0.9999480837466407 0.999947252268891 0.9999466087508091 0.9999460989141916 0.9999456774482592 0.9999453052870215 0.9999449466181065 0.9999445655846455 0.9999441222735153 0.9999435676615975 0.9999428359132888 0.9999418313690261 0.9999404042149773 0.9999382974333835 0.9999350192530102 0.9999295050443309 0.9999191701527804 0.9998972065609713 0.9998449563167247 0.9997112384286937 0.9993562264187049 0.9978940648691206 0.6921715528564735 0.3327440064853575 0.17607554343287893 0.1343938294587697 0.11328966841491331 0.07967718083396888 0.00010607727054833305 0.9999958979899147 0.9999901232727297 0.9999851520881726 0.9999807083563825 0.9999767605841918 0.9999733335638102 0.9999704449774178 0.9999680781982757 0.999966186468277 0.9999647043141089 0.9999635604088102 0.999962686397682 0.9999620217102209 0.9999615152224925 0.9999611250040885 0.9999608169627217 0.9999605630921551 0.9999603395753445 0.9999601248562525 0.9999598976255051 0.9999596346086639 0.9999593077507632 0.9999588804371203 0.9999583015634171 0.9999574955112669 0.9999563427084467 0.999954636067443 0.9999519667538577 0.9999473794235991 0.999938238789582 0.9999164131065517 0.9998557907782121 0.9996726762786735 0.9988529955264622 0.8380194344501435 0.5316535210804044 0.2872875398311176 0.17016286547087758 0.12213944914901453 0.08302561125240379 0.000104943631947891 0.9999958973159611 0.9999915432771623 0.9999877509612667 0.9999844208066259 0.9999815377425522 0.9999791015233951 0.9999770960625972 0.9999754851449713 0.9999742177147386 0.9999732369345564 0.9999724871592212 0.9999719184200077 0.9999714882265215 0.9999711617516 0.9999709109589197 0.9999707134187856 0.9999705509070604 0.9999704080704728 0.9999702711425359 0.9999701266613549 0.99996996006