# vtk DataFile Version 3.0
vtk output
ASCII
DATASET RECTILINEAR_GRID
DIMENSIONS 41 41 1
X_COORDINATES 41 double
0 1 2 3 4 5 6 7 8 9 10 11 12 13 14 15 16 17 18 19 20 21 22 23 24 25 26 27 28 29 30 31 32 33 34 35 36 37 38 39 40 
Y_COORDINATES 41 double
0 1 2 3 4 5 6 7 8 9 10 11 12 13 14 15 16 17 18 19 20 21 22 23 24 25 26 27 28 29 30 31 32 33 34 35 36 37 38 39 40 
Z_COORDINATES 1 double
0
POINT_DATA 1681
FIELD FieldData 1
Concentracao 1 1681 double
1.0 1.0 1.0 1.0 1.0000000000000002 1.0 0.9999999999999999 0.9999999999999998 0.9999999999999998 0.9999999999999991 0.9999999999999993 0.9999999999999993 0.9999999999999986 0.9999999999999982 0.9999999999999981 0.9999999999999979 0.9999999999999978 0.9999999999999977 0.9999999999999973 0.9999999999999968 0.9999999999999962 0.9999999999999961 0.9999999999999959 0.9999999999999958 0.999999999999995 0.9999999999999942 0.9999999999999934 0.9999999999999931 0.9999999999999929 0.9999999999999922 0.9999999999999918 0.9999999999999905 0.9999999999999856 0.9999999999999444 0.9999999999995157 0.9999999999927867 0.999999999792144 0.9999999849365461 0.9999968659122358 0.9984481269791808 0.0001844526515927791 1.0 1.0 1.0000000000000004 0.9999999999999999 0.9999999999999997 0.9999999999999996 0.9999999999999993 0.9999999999999987 0.9999999999999981 0.999999999999998 0.9999999999999969 0.9999999999999962 0.9999999999999953 0.9999999999999951 0.9999999999999944 0.9999999999999938 0.9999999999999933 0.9999999999999929 0.9999999999999927 0.9999999999999916 0.9999999999999912 0.9999999999999911 0.9999999999999906 0.9999999999999892 0.9999999999999889 0.9999999999999882 0.9999999999999871 0.9999999999999862 0.9999999999999849 0.9999999999999846 0.9999999999999843 0.9999999999999839 0.9999999999999785 0.9999999999999399 0.9999999999995403 0.9999999999933037 0.9999999998070442 0.9999999858507217 0.9999970007289397 0.9984827530374271 0.00018445774180845726 1.0 1.0 1.0000000000000002 1.0000000000000002 1.0 0.9999999999999996 0.9999999999999996 0.9999999999999989 0.9999999999999988 0.9999999999999982 0.9999999999999978 0.9999999999999977 0.9999999999999972 0.9999999999999964 0.999999999999997 0.9999999999999962 0.9999999999999953 0.9999999999999949 0.9999999999999949 0.9999999999999947 0.9999999999999944 0.9999999999999938 0.9999999999999929 0.999999999999992 0.9999999999999917 0.9999999999999909 0.99999999999999 0.99999999999999 0.9999999999999898 0.9999999999999895 0.9999999999999892 0.9999999999999888 0.9999999999999833 0.9999999999999484 0.9999999999996044 0.9999999999943042 0.9999999998342907 0.9999999875200818 0.9999972547882493 0.9985506756127092 0.0001844635173044878 1.0 1.0 0.9999999999999998 1.0 1.0000000000000002 0.9999999999999996 0.9999999999999996 0.999999999999999 0.9999999999999987 0.999999999999998 0.9999999999999974 0.9999999999999968 0.9999999999999968 0.9999999999999972 0.9999999999999967 0.9999999999999964 0.9999999999999953 0.9999999999999953 0.9999999999999944 0.9999999999999937 0.9999999999999933 0.9999999999999936 0.9999999999999927 0.9999999999999922 0.999999999999992 0.9999999999999907 0.9999999999999905 0.9999999999999899 0.9999999999999899 0.9999999999999899 0.999999999999989 0.9999999999999881 0.999999999999984 0.9999999999999561 0.9999999999996865 0.9999999999955624 0.9999999998686037 0.9999999896887382 0.9999976017402677 0.9986495734938646 0.00018446973795013542 1.0000000000000002 0.9999999999999998 0.9999999999999997 0.9999999999999998 0.9999999999999999 0.9999999999999998 0.9999999999999992 0.9999999999999993 0.9999999999999986 0.9999999999999983 0.9999999999999974 0.9999999999999968 0.9999999999999969 0.9999999999999966 0.999999999999996 0.9999999999999953 0.9999999999999947 0.9999999999999942 0.9999999999999927 0.999999999999992 0.9999999999999925 0.999999999999992 0.9999999999999913 0.9999999999999911 0.9999999999999907 0.9999999999999896 0.9999999999999893 0.9999999999999891 0.9999999999999888 0.9999999999999886 0.9999999999999885 0.9999999999999878 0.9999999999999842 0.9999999999999633 0.9999999999997701 0.9999999999968503 0.9999999999044571 0.9999999920658518 0.9999980105289794 0.9987759400509483 0.0001844761160255299 1.0000000000000002 0.9999999999999996 0.9999999999999997 0.9999999999999996 0.9999999999999994 0.9999999999999997 0.9999999999999992 0.9999999999999991 0.9999999999999991 0.9999999999999983 0.9999999999999972 0.9999999999999966 0.999999999999997 0.9999999999999968 0.9999999999999964 0.9999999999999962 0.9999999999999966 0.9999999999999958 0.9999999999999949 0.9999999999999949 0.9999999999999942 0.9999999999999929 0.999999999999992 0.9999999999999918 0.9999999999999911 0.9999999999999911 0.9999999999999909 0.9999999999999909 0.9999999999999901 0.9999999999999896 0.9999999999999893 0.9999999999999882 0.9999999999999849 0.9999999999999688 0.9999999999998427 0.9999999999979863 0.9999999999371314 0.9999999943829778 0.9999984442333666 0.9989272903508201 0.0001844823401401396 1.0000000000000002 0.9999999999999996 0.9999999999999996 0.9999999999999996 0.9999999999999991 0.9999999999999992 0.999999999999999 0.9999999999999982 0.9999999999999983 0.9999999999999979 0.9999999999999977 0.999999999999997 0.9999999999999964 0.9999999999999962 0.999999999999996 0.9999999999999944 0.9999999999999947 0.9999999999999939 0.9999999999999929 0.9999999999999925 0.9999999999999925 0.9999999999999916 0.9999999999999916 0.9999999999999905 0.9999999999999908 0.9999999999999905 0.9999999999999898 0.9999999999999886 0.9999999999999877 0.9999999999999868 0.9999999999999865 0.9999999999999858 0.9999999999999829 0.9999999999999709 0.9999999999998938 0.9999999999988545 0.9999999999634834 0.9999999964098973 0.9999988754017917 0.9990933760309564 0.00018448806234892402 1.0000000000000002 0.9999999999999996 0.9999999999999991 0.9999999999999988 0.9999999999999986 0.9999999999999979 0.9999999999999973 0.9999999999999967 0.9999999999999963 0.9999999999999957 0.9999999999999937 0.9999999999999915 0.9999999999999885 0.9999999999999861 0.9999999999999827 0.999999999999978 0.9999999999999728 0.9999999999999662 0.9999999999999581 0.99999999999995 0.9999999999999398 0.9999999999999285 0.9999999999999166 0.9999999999999032 0.9999999999998892 0.9999999999998747 0.9999999999998588 0.9999999999998426 0.9999999999998282 0.9999999999998145 0.9999999999998034 0.9999999999997949 0.9999999999997872 0.9999999999997764 0.9999999999997369 0.9999999999992557 0.9999999999819901 0.9999999980211439 0.9999992550026828 0.9992902497159415 0.00018449298313388308 1.0000000000000002 0.9999999999947061 0.9999999999845085 0.9999999999706832 0.9999999999538688 0.9999999999325113 0.999999999904489 0.9999999998667289 0.9999999998182896 0.9999999997573704 0.9999999996821839 0.9999999995910724 0.9999999994825749 0.9999999993554636 0.9999999992087769 0.9999999990418202 0.9999999988541685 0.9999999986456655 0.9999999984164303 0.9999999981668791 0.9999999978977854 0.9999999976103731 0.9999999973064749 0.9999999969887639 0.9999999966610942 0.9999999963289771 0.9999999960002051 0.9999999956856717 0.9999999954002863 0.9999999951639451 0.999999995002175 0.9999999949459499 0.9999999950296703 0.9999999952864759 0.999999995738408 0.9999999963882031 0.9999999971848553 0.999999997246007 0.9999995979897037 0.9994283304683566 0.00018449674628403484 0.9999999999977474 0.999997048534627 0.9999945686140577 0.9999924815169249 0.9999904389220424 0.9999883800601191 0.9999861966735392 0.9999837642094865 0.9999811198984309 0.9999782619597859 0.9999751958109907 0.999971932527761 0.9999684876467504 0.9999648794539515 0.9999611275812648 0.9999572520352724 0.999953272756106 0.9999492092269415 0.999945080566057 0.9999409057521195 0.9999367046272474 0.9999324988334043 0.99992831334996 0.9999241788310126 0.9999201344437095 0.9999162318013946 0.9999125400846128 0.9999091528181787 0.9999061958460105 0.9999038373164927 0.9999022977771518 0.9999018589678534 0.9999028676592548 0.9999057234229871 0.9999108687617295 0.9999186210459264 0.9999296135485869 0.9999421510625487 0.9999627040470386 0.9997390510797644 0.00018449916906740244 0.9999996232139767 0.02311726450409573 0.015773871747860484 0.01599314242123444 0.015748294140391944 0.01571380049012491 0.015612817577420902 0.015466743948827143 0.015275999790191296 0.01505368654003592 0.014807698981373964 0.014546427077514978 0.014274734310881457 0.013996453436531407 0.013713671384449786 0.013429094781554941 0.0131437906046392 0.012858757600519985 0.012574943972997315 0.012292539635897083 0.012011752892598117 0.011733502544320767 0.011458024718684212 0.011184288373204414 0.010914047175023164 0.010645865623155379 0.010381751455905664 0.010120101557090783 0.009862194497450488 0.009608453525773667 0.009359227091559143 0.009114932261726695 0.008876751260974208 0.00864605897741266 0.00842722065211919 0.008215623033260585 0.00808251820570623 0.007738717602109895 0.009808525230628024 0.9997199528018378 0.0001845004951875636 0.9999992669336537 0.0004791767273325862 0.00011785642024507987 0.00011966060413565112 0.00012117089442877354 0.00012179272566916164 0.00012111428582892293 0.00011935248183126223 0.00011677589855018561 0.0001136402469664713 0.00011013983224352873 0.00010641906713888051 0.00010258127209423928 9.86973610747435e-05 9.481457741865207e-05 9.096950086772452e-05 8.719428190139103e-05 8.34930251335168e-05 7.988318046076002e-05 7.636655104337809e-05 7.294916958277447e-05 6.964052820593669e-05 6.643723996769402e-05 6.332944363910435e-05 6.033136709150252e-05 5.743535922317421e-05 5.4643160764456264e-05 5.194562674706375e-05 4.935326338016137e-05 4.686093393904908e-05 4.446890628759034e-05 4.2177587442139854e-05 3.998588238344653e-05 3.7894247622777684e-05 3.5906231876639456e-05 3.401106121511083e-05 3.229738066753367e-05 3.0263125443226253e-05 0.0002516447174152684 0.9997117417202516 0.0001845017284617391 0.9999989095972984 0.0003752157494315857 5.733498393799627e-07 5.763034596547052e-07 6.083170692252425e-07 6.231575886595209e-07 6.229098443899688e-07 6.124372783853402e-07 5.947658940798549e-07 5.724005607610021e-07 5.472254203155147e-07 5.205257334955123e-07 4.932376783779445e-07 4.65955163553932e-07 4.391304172613715e-07 4.1302016434534406e-07 3.878557010993915e-07 3.6367435660645415e-07 3.4058148813276754e-07 3.1854453507613035e-07 2.976033849555543e-07 2.777842230004343e-07 2.5900971719619223e-07 2.412305862000947e-07 2.2446059538600911e-07 2.086586130581302e-07 1.9376990821491463e-07 1.7974555550635823e-07 1.6657621984103195e-07 1.5422671299745261e-07 1.4264850469055202e-07 1.3180669783747317e-07 1.216573062810137e-07 1.1213550987068543e-07 1.0318137373582638e-07 9.455804291545846e-08 8.62933183051823e-08 1.0012401480006484e-07 0.00021847952976893496 0.9997055441761092 0.0001845029804958399 0.9999985525758868 0.0012571110070921738 1.2259938213258092e-06 7.053641653969066e-08 6.929426538925737e-08 6.812765141878949e-08 6.652283009083028e-08 6.447949479801503e-08 6.200003437471946e-08 5.910780701202506e-08 5.584844584868134e-08 5.228778339415602e-08 4.850610809713871e-08 4.458914542720004e-08 4.061960075798596e-08 3.667127075353715e-08 3.280642761117786e-08 2.9073995682053592e-08 2.5512002237561303e-08 2.214779314606929e-08 1.900119375222294e-08 1.6085803818973088e-08 1.341012819846349e-08 1.0979078695749007e-08 8.794727325882666e-09 6.856559197797307e-09 5.161910738412777e-09 3.7068407928417633e-09 2.487296553727232e-09 1.502263867301072e-09 7.614130083536899e-10 4.5055918442698654e-10 6.1357648802996935e-09 9.431899119520111e-09 1.1275753942574854e-08 1.2400583605838387e-08 1.3130635636269832e-08 1.488415607696969e-07 0.0006760218954978896 0.9997004279082244 0.0001845042483295466 0.9999981995068861 0.009409273908344876 0.00038459740402788534 0.00036766499490272934 0.00036498895177589893 0.00036147430224313056 0.0003569372422255303 0.00035124675231744824 0.00034429552443904 0.00033602504474019576 0.000326437213962185 0.00031559458738493793 0.0003036097317586881 0.0002906264149615762 0.00027679841730303504 0.0002622735257646667 0.0002471817120358827 0.00023162748146689558 0.00021568903568160757 0.0001994185967707937 0.000182845452260885 0.0001659833234205141 0.0001488377428854973 0.0001314203516041541 0.00011376202937899651 9.592769130465593e-05 7.803081023730689e-05 6.024616905658503e-05 4.2833023828737053e-05 2.6203915828288192e-05 1.1156771221785411e-05 2.4639758947127215e-06 7.579457828904264e-05 0.00010034521808069139 0.00011114527199103745 0.00011715350568673738 0.00012084150126467017 0.00012386817359779457 0.0015567952082403216 0.9996874036048126 0.00018450552478198204 0.9999981994824564 0.9999698092389162 0.9999233309719175 0.9998446461433537 0.9997318314658423 0.9995770434925868 0.9993741152043348 0.9991170929439694 0.9988017059595927 0.9984260567344875 0.9979911173345318 0.997500724173478 0.9969609054951399 0.9963790427531437 0.9957627877032424 0.9951190180356326 0.9944513302330164 0.993751262255632 0.9929713193159587 0.9919571067795153 0.9903116177739653 0.9871744645759264 0.9809274739110728 0.9688819328963244 0.9470310140307461 0.909950708303231 0.8508942804910672 0.7620566702327546 0.6350029464965932 0.461666394927121 0.2387243118657471 0.03153261910128022 0.5596224300696032 0.5793231254718353 0.5803993527969447 0.5807639356577057 0.5809559293074663 0.5810691007214315 0.5811357205684823 0.5811840940432536 0.0001843014268026075 0.9999981994441512 0.9999781052354605 0.9999598955096191 0.9999268384719588 0.9998794875298739 0.9998135446225951 0.9997270403151179 0.9996187354943195 0.9994894778108427 0.9993421932900375 0.9991817785472881 0.9990143908565572 0.9988464653791698 0.9986837061180043 0.9985302747780489 0.9983879989886065 0.9982540654205317 0.9981118366861969 0.997901765481317 0.9974497642710164 0.9963263949173672 0.9936226066461324 0.9876604039829728 0.9757000206621501 0.9537316087215802 0.9164342571224329 0.8573186441142548 0.7690374018430135 0.6437559946152268 0.4739507878802185 0.2560440093395491 0.03571909007919997 0.5509517109961044 0.5655374801428505 0.5563051883700199 0.5431704614977321 0.5252676560723094 0.4995137595186819 0.46226287471932204 0.3769691212792248 0.00018375946786839325 0.9999981993853322 0.9999835014048367 0.9999693972684629 0.9999496306787604 0.9999206100289328 0.999880579211945 0.9998280148971387 0.9997627718834996 0.9996861460567877 0.9996009788633523 0.9995112501808514 0.9994213613626779 0.9993353536148827 0.9992562651788983 0.9991857648886591 0.9991236820057093 0.9990655074928826 0.9989916860406484 0.9988346173768953 0.9984006775461396 0.9972243582613519 0.994349158442687 0.9880674791438044 0.9756890958685823 0.9534225828677271 0.9164216406535326 0.858978962642747 0.7747358337262712 0.6568264640676613 0.4981353623835697 0.293789464981357 0.07302186157217287 0.5393482523754434 0.5571281302065557 0.5409314480539822 0.5193773985473346 0.49141926493317456 0.45397245210377124 0.39977297814074086 0.29113050386303246 0.00018274587551158944 0.9999981993113223 0.9999860344128138 0.9999744347677623 0.999959167108847 0.9999379171715811 0.9999088697786195 0.999871160083727 0.9998249280970709 0.9997715723201921 0.9997135781773114 0.999654081514709 0.9995962331301476 0.9995426173720303 0.9994948950443107 0.9994536418178103 0.9994177771907415 0.9993809645164645 0.9993173467124157 0.9991408646977336 0.9986163995506359 0.9972073163540355 0.993870473372507 0.9868485669121219 0.9735402755690513 0.9505172147824109 0.9136907644211941 0.8585292793757544 0.7801405859308532 0.6730493488476106 0.5308206246532294 0.34721003717377946 0.1367436996093949 0.4667565770977775 0.55494298764685 0.5344393882677624 0.5077176915399103 0.474136259281143 0.4304804385741836 0.3670872025345667 0.2532979797733991 0.00018140121322372975 0.9999981992253092 0.999987341129866 0.9999768932117319 0.9999637689498574 0.9999460415495232 0.9999223964917301 0.999892282024144 0.9998561457191923 0.9998154346152321 0.999772358643141 0.9997294131947797 0.9996888523316177 0.9996523115215948 0.9996206319886939 0.9995937392792484 0.9995694866719664 0.999537486418966 0.9994577370796109 0.9992063774104449 0.9984703172540182 0.9965892670498856 0.9923792045697701 0.9840087770053338 0.969009329044963 0.9444494620219746 0.9072230056661295 0.8542620565422556 0.7824481808540444 0.6880463705580377 0.5657457475084858 0.40858737968285286 0.21962017263563102 0.37605161756668865 0.5179889289950529 0.5327853236499213 0.5070968091678127 0.4705905244549472 0.4238884125980775 0.3571563445660692 0.2411774543491214 0.00017987199023692256 0.9999981991328181 0.9999877201107877 0.9999776753599064 0.9999653197468952 0.9999490899967681 0.9999280488018603 0.9999020755219699 0.9998719256236468 0.9998391252027579 0.9998056288991198 0.9997733737178925 0.999743889483647 0.9997181015913368 0.9996962625525172 0.9996775418825881 0.9996570039590528 0.9996131201668719 0.9994717435807156 0.9990285065101278 0.9978220261557972 0.9949802843271496 0.9891038622301956 0.9782707094323976 0.9602207822557245 0.9326929914213338 0.8937836449099171 0.8420950797920551 0.7764553530306816 0.6950685726421718 0.5941878214266921 0.4671511363490817 0.309750970586981 0.32944474203922963 0.44613693787270364 0.5072523025130654 0.5067806888829315 0.47622121865565553 0.429693358706901 0.36223966887630477 0.24545265624035362 0.0001783388218700882 0.9999981990401049 0.9999872238745913 0.9999765584652377 0.9999637618843025 0.9999475919159515 0.9999276854402892 0.9999040831681592 0.9998779874220359 0.9998509660484677 0.9998246348553305 0.9998003435550212 0.9997789629629568 0.9997608177540501 0.9997454010072796 0.9997291674731145 0.999695789676232 0.9995865386941329 0.9992337024610887 0.9982476138705008 0.9958757597893225 0.9908926964976978 0.9816087435853114 0.9660634965467695 0.9424027864860487 0.9093262792665617 0.866408442571552 0.8140827264989179 0.7531373520020609 0.6837005871001012 0.6038208894275632 0.5081026055548891 0.38926224431432105 0.3377457263026251 0.38413464261630315 0.4517016099687605 0.48517679375556133 0.47860816009456003 0.44219031428783206 0.37757497630440107 0.25911568511670774 0.00017695096136893728 0.9999981989534801 0.9999851289461911 0.9999724011091181 0.9999572760434988 0.9999398525470983 0.9999202440311586 0.9998987691468374 0.9998764688746462 0.9998546858716538 0.9998347017563435 0.9998171557338811 0.999802147986812 0.9997884156386647 0.9997694488274915 0.9997198581849528 0.9995592431489304 0.999078416190134 0.9978235263103845 0.9949632376352541 0.9892027426146268 0.9788280813483178 0.961947280293739 0.936909755294035 0.902800148370025 0.8598184469888509 0.8093686096465185 0.7537450094486574 0.6954337908474603 0.6361014604678302 0.5753952829172861 0.5097195059188543 0.4320271294090915 0.36924854800246487 0.35887590564136274 0.3931347217546799 0.435527495613927 0.45764845483843225 0.4476248998564304 0.397785464899667 0.2849321956625756 0.0001758309190341387 0.999998198878794 0.9999810224880195 0.9999607848155188 0.9999414315555577 0.9999226336761461 0.9999037013143767 0.9998846052208836 0.99986568483257 0.9998470975184022 0.99982756215683 0.9997983003347151 0.9997398426235818 0.999602783957172 0.9992725063521279 0.9985061721060683 0.9968392445542097 0.9934776320475232 0.9872192243234061 0.9764674879026276 0.9593984594546574 0.9342990013324848 0.9000111784224568 0.8563701538367099 0.804463450651067 0.7466109752205579 0.6860217523492035 0.626221731609334 0.5703613046364211 0.5205384862820288 0.47716030845010804 0.43827926129075806 0.39905315346038817 0.36150674924213083 0.3397692643415789 0.3443930950698956 0.3705278973773375 0.40207964560847065 0.421762327586944 0.4075373795357404 0.307637597686635 0.00017501335918020366 0.9999981984933668 0.9995945258329899 0.9991791822881374 0.9987378780731474 0.9982217432250443 0.9975865334021599 0.9967795780763571 0.9957365912649937 0.9943694443890291 0.9925418995709582 0.989305219562521 0.9846074172595826 0.9778738881983351 0.968331824533143 0.9550093801642447 0.9367715542737918 0.9124151348057421 0.8808414781312651 0.8412918250974514 0.7936029492961997 0.7384083957351831 0.6772205983204268 0.6123414730113502 0.54660571017878 0.48300907826612993 0.4243094875304059 0.3727120871355783 0.3296747705040696 0.29585362901486334 0.2711111214880232 0.25446711497962693 0.243890830113979 0.23743498555965054 0.23578934205569332 0.2423002125758088 0.2596266150392716 0.2879839626377698 0.31932989548596924 0.35421281861131515 0.3335552850000229 0.00017455123897329162 0.9999977157728102 0.01700231225000065 0.011126310114247855 0.010974141060928597 0.010534174646063677 0.010243279221160868 0.009898826603809857 0.009508957226986848 0.0090714181525278 0.00859150951854072 0.008076187685449892 0.007537373534439033 0.006980848759962606 0.006412647240429732 0.0058384685546406315 0.005263822061880791 0.004695304435106737 0.004139985493869027 0.0036058442719129084 0.0031008645533521107 0.0026325761710588977 0.0022078818351811353 0.0018318017928860082 0.0015070117629623792 0.0012340599579074712 0.0010110466869042779 0.0008344122753120581 0.0006990431443693151 0.000599289772399742 0.0005291418067842008 0.0004823153692656545 0.0004516593556270031 0.0004337696875425502 0.0004444747202843874 0.0005243256969181074 0.0007162730718102115 0.0010547268729946904 0.001443521488534837 0.0026368745714323303 0.3331987629749864 0.00017429474596150402 0.9999972627877552 0.0004155246874404483 6.001441559228181e-05 5.801513041622928e-05 5.614232414106828e-05 5.389981437944452e-05 5.1011590862448876e-05 4.7580867138210075e-05 4.3749854474311786e-05 3.968410783002496e-05 3.564335119736904e-05 3.165961249904481e-05 2.7805593033402952e-05 2.414363379282566e-05 2.072108968436485e-05 1.7568087295897672e-05 1.471026425018463e-05 1.2159066144128945e-05 9.920468644908418e-06 7.991015259371436e-06 6.357998569244791e-06 5.003303528951329e-06 3.902131569768435e-06 3.025681724883032e-06 2.342979527736648e-06 1.822369741624158e-06 1.4346971295322421e-06 1.1526429550400357e-06 9.532143330910512e-07 8.167271725858524e-07 7.26226634653107e-07 6.661617843530671e-07 6.327123053277678e-07 6.850457201409812e-07 9.839296560984799e-07 1.7291547507657987e-06 3.0727297391893566e-06 4.7727510331728345e-06 6.143200580091597e-05 0.33281921557890287 0.00017405811629654278 0.9999968084749266 0.00035898986602369204 2.517912342122859e-07 2.0086793029089905e-07 1.9928347383620426e-07 1.9170231511249946e-07 1.7903880690697226e-07 1.6314403150927178e-07 1.453568801525086e-07 1.2699529493396236e-07 1.0979055316448862e-07 9.355262388480105e-08 7.859964139315898e-08 6.512699011813101e-08 5.323182777443198e-08 4.2916471968467945e-08 3.4128332995462554e-08 2.677168273577736e-08 2.072110897995109e-08 1.5834924832655484e-08 1.1959403808895703e-08 8.941551262906124e-09 6.635244384520267e-09 4.904456463164077e-09 3.629635491225644e-09 2.7060958743536443e-09 2.0493936564467177e-09 1.5903619641588153e-09 1.2760407854412458e-09 1.0655637221451833e-09 9.270269006509814e-10 8.343918732828647e-10 7.853664214931165e-10 9.200870889909217e-10 1.6548377288105545e-09 3.561702886559507e-09 7.069866075631623e-09 1.6268802902836313e-08 5.283575057658699e-05 0.33244231712705197 0.00017382054118422768 0.9999963544979081 0.0010989021517605355 9.117646057537959e-07 6.294873102511717e-08 6.175020395712153e-08 6.069699282481676e-08 5.9507539691486994e-08 5.821969327066402e-08 5.686404057295987e-08 5.546621801690146e-08 5.4048467246152104e-08 5.262122943751407e-08 5.119436285345925e-08 4.977487303135647e-08 4.836753370143729e-08 4.697546798706593e-08 4.560053907419699e-08 4.4243649408959305e-08 4.290504944454522e-08 4.1584375243416306e-08 4.0280718501952933e-08 3.8992612211385065e-08 3.771798103926468e-08 3.6453950096752736e-08 3.519645264333954e-08 3.3939834358392225e-08 3.267597304345763e-08 3.139284113683815e-08 3.007201600186709e-08 2.8683367357718015e-08 2.7173397790225067e-08 2.543324403570789e-08 2.318224791875244e-08 1.919420512722317e-08 1.2555429358829218e-09 2.365483737702886e-09 2.6338445026857312e-09 3.971243588835624e-08 0.00019431288794314144 0.33206667342102214 0.00017358271978435712 0.9999959047195582 0.007389159000452161 0.00036322759082082167 0.0003516304454959982 0.00034904782490937096 0.0003460445558477604 0.000342674998371086 0.00033901786028182293 0.0003351363209585365 0.00033108308370907784 0.00032689982132040927 0.0003226191252598282 0.0003182656032841964 0.000313857735914736 0.00030940882324741767 0.00030492875153194826 0.0003004240537362776 0.00029589855297803983 0.00029135423667942206 0.0002867910801214865 0.00028220674223093737 0.00027759655470639845 0.0002729530480097061 0.00026826489828892755 0.00026351511951349803 0.00025867893339118653 0.0002537195372533861 0.0002485807216486875 0.00024317412637712407 0.00023735186047019505 0.00023084451726588194 0.00022308751257685137 0.00021256192000427136 0.00019192425287639387 1.7525251492629005e-05 2.717437205595291e-05 2.891896654254113e-05 2.9909936976937645e-05 0.0004439169486026849 0.3316883583513548 0.00017334533119870075 0.9999959046677045 0.9999677025154897 0.9999240821238375 0.9998560316436712 0.9997681569041637 0.9996614914450128 0.9995388813039379 0.9994029232715332 0.9992560572326578 0.9991003671974076 0.9989375600228368 0.9987689952116263 0.9985957219953197 0.9984185338152294 0.99823801951925 0.998054623315419 0.9978686228033369 0.9976802206389446 0.9974894983124449 0.9972964721305606 0.9971010462870857 0.9969030221837515 0.9967020781771159 0.9964977180837434 0.9962891910032073 0.996075394317894 0.9958546780652929 0.9956245106454523 0.9953809037150456 0.9951171446342968 0.9948209785869657 0.9944666707281022 0.993984925898225 0.9929286129001657 0.15254175870131612 0.183410584781274 0.18847694629852146 0.1909342149026439 0.19229421023730905 0.1938527905829341 0.00017303491814413236 0.9999959045799092 0.9999765094671261 0.9999610341606403 0.9999375024987252 0.9999104455819554 0.9998808792888754 0.9998508043590002 0.9998215725122772 0.9997942308663879 0.9997694097387974 0.9997474040052022 0.9997282405195488 0.9997117530512512 0.9996976407307385 0.9996855093950002 0.9996748945085652 0.9996652622262538 0.9996559910887671 0.9996463312305645 0.9996353363838586 0.9996217623382171 0.9996039180475267 0.9995794531806005 0.9995450529760666 0.9994960039829376 0.9994255602404816 0.9993240540425768 0.9991775712137589 0.998965986878132 0.9986599269665826 0.9982155836315797 0.9975641114665609 0.99658030677238 0.9947855000117717 0.14730042906673146 0.17699642360828685 0.17534904468983686 0.16839490755152106 0.1565631136998869 0.12885310739974146 0.00017244652018131177 0.9999959044303963 0.999982649993695 0.9999713946942997 0.9999593525449002 0.9999460911010987 0.9999327252721625 0.9999199747053381 0.999908417919017 0.999898348825662 0.9998898536609615 0.9998828639630495 0.9998772199972165 0.9998727179379936 0.9998691432049874 0.9998662882006902 0.9998639613791869 0.9998619863911735 0.9998601969394578 0.999858425520197 0.9998564863622044 0.9998541484274547 0.9998510911091819 0.9998468270404366 0.9998405624880492 0.9998309403725111 0.9998155536650069 0.9997900350069888 0.9997463352800252 0.9996695067973163 0.9995317342751726 0.9992813345839995 0.9988221699703381 0.9979696519686515 0.9961973378504451 0.3020467939434562 0.17342742207989367 0.1682302349681575 0.15697099630514985 0.13939476232090983 0.10285564571860395 0.00017148698694246093 0.9999959042178331 0.9999860219170084 0.9999777431583619 0.9999695996415988 0.9999616057632926 0.9999539854839432 0.999947077071595 0.9999410747004969 0.9999360458540836 0.9999319530086297 0.9999286954229967 0.9999261438490818 0.9999241641533565 0.999922631228435 0.9999214346781075 0.999920479858709 0.9999196854359875 0.9999189795885278 0.9999182949418598 0.9999175620079759 0.9999167010006234 0.9999156097030644 0.9999141429267444 0.9999120748808912 0.9999090220442072 0.9999042753352984 0.9998964166243541 0.9998824201468577 0.9998555301699853 0.9998002981454811 0.9996812145014017 0.9994175408819581 0.9988274636941225 0.9974090306821206 0.5137533712334614 0.2134820057228478 0.16599253936755456 0.15278936808603003 0.13236867243466974 0.09363571472468696 0.00017032483852938123 0.9999959039260325 0.9999883789515361 0.9999819714679844 0.9999760665074473 0.9999705925501984 0.9999656579985675 0.9999613603229354 0.9999577468765758 0.9999547987338885 0.9999524514588657 0.9999506169765708 0.9999492015912987 0.999948117083558 0.9999472859214522 0.9999466427010703 0.9999461331559407 0.9999457119849714 0.9999453401305602 0.9999449817880846 0.9999446011083901 0.9999441581866825 0.9999436040095873 0.999942872754023 0.9999418687787349 0.9999404423015835 0.9999383363711855 0.9999350593782226 0.9999295471338873 0.9999192163183321 0.9998972636861494 0.9998450541397162 0.9997115886179326 0.9993607488418967 0.9983907906266575 0.7056754066919191 0.3524437964349104 0.1980639734056404 0.15598958892242976 0.1325266997310694 0.09350375337271685 0.00016909611076430111 0.9999959035331849 0.9999901364603363 0.9999851701267908 0.9999807296390838 0.9999767841303598 0.9999733587446195 0.9999704713698823 0.9999681055092697 0.9999662144911525 0.9999647329027509 0.9999635894607578 0.9999627158426262 0.9999620515018861 0.9999615453328324 0.9999611554191188 0.9999608476795863 0.9999605941171231 0.999960370922551 0.9999601565470314 0.9999599296882787 0.9999596670794385 0.9999593406745833 0.9999589138715825 0.9999583355874115 0.9999575302471054 0.9999563783765711 0.9999546731161102 0.9999520061592365 0.9999474234273356 0.999938293179956 0.9999164978863926 0.9998560280904252 0.9996751334217254 0.9991053242167578 0.8453615727260329 0.5465006176620691 0.3068452760277009 0.19101035174417866 0.141389842044849 0.09712964816565395 0.000167930630937668 0.9999959029969563 0.9999915547272747 0.9999877664180931 0.9999844391128657 0.9999815581180242 0.999979123428913 0.9999771191192607 0.9999755090837135 0.9999742423442135 0.9999732621195084 0.9999725128055708 0.9999719444642189 0.9999715146279761 0.9999711884870802 0.9999709380186796 0.9999707408037719 0.9999705786270557 0.9999704361429972 0.9999702995925482 0.999970155522162 0.9999699893832094 0.9999697838942083 0.999969516