# vtk DataFile Version 3.0
vtk output
ASCII
DATASET RECTILINEAR_GRID
DIMENSIONS 41 41 1
X_COORDINATES 41 double
0 1 2 3 4 5 6 7 8 9 10 11 12 13 14 15 16 17 18 19 20 21 22 23 24 25 26 27 28 29 30 31 32 33 34 35 36 37 38 39 40 
Y_COORDINATES 41 double
0 1 2 3 4 5 6 7 8 9 10 11 12 13 14 15 16 17 18 19 20 21 22 23 24 25 26 27 28 29 30 31 32 33 34 35 36 37 38 39 40 
Z_COORDINATES 1 double
0
POINT_DATA 1681
FIELD FieldData 1
Concentracao 1 1681 double
1.0 1.0 1.0 1.0 1.0000000000000002 1.0 0.9999999999999999 0.9999999999999998 0.9999999999999998 0.9999999999999991 0.9999999999999993 0.9999999999999993 0.9999999999999986 0.9999999999999982 0.9999999999999981 0.9999999999999979 0.9999999999999978 0.9999999999999977 0.9999999999999973 0.9999999999999968 0.9999999999999962 0.9999999999999961 0.9999999999999959 0.9999999999999958 0.999999999999995 0.9999999999999942 0.9999999999999934 0.9999999999999931 0.9999999999999929 0.9999999999999922 0.9999999999999907 0.9999999999999803 0.9999999999999174 0.9999999999994521 0.9999999999951853 0.999999999939354 0.9999999986568255 0.9999999325108417 0.9999911121316545 0.9973642863828003 0.00016848821177853704 1.0 1.0 1.0000000000000004 0.9999999999999999 0.9999999999999997 0.9999999999999996 0.9999999999999993 0.9999999999999987 0.9999999999999981 0.999999999999998 0.9999999999999969 0.9999999999999962 0.9999999999999953 0.9999999999999951 0.9999999999999944 0.9999999999999938 0.9999999999999933 0.9999999999999929 0.9999999999999927 0.9999999999999916 0.9999999999999912 0.9999999999999911 0.9999999999999906 0.9999999999999892 0.9999999999999889 0.9999999999999882 0.9999999999999871 0.9999999999999862 0.9999999999999849 0.9999999999999846 0.9999999999999832 0.9999999999999742 0.9999999999999121 0.9999999999994674 0.9999999999954569 0.9999999999435065 0.9999999987501976 0.9999999365534059 0.9999914932309422 0.9974232155179847 0.0001684960985269865 1.0 1.0 1.0000000000000002 1.0000000000000002 1.0 0.9999999999999996 0.9999999999999996 0.9999999999999989 0.9999999999999988 0.9999999999999982 0.9999999999999978 0.9999999999999977 0.9999999999999972 0.9999999999999964 0.999999999999997 0.9999999999999962 0.9999999999999953 0.9999999999999949 0.9999999999999949 0.9999999999999947 0.9999999999999944 0.9999999999999938 0.9999999999999929 0.999999999999992 0.9999999999999917 0.9999999999999909 0.99999999999999 0.99999999999999 0.9999999999999898 0.9999999999999895 0.9999999999999879 0.9999999999999787 0.9999999999999212 0.9999999999995265 0.9999999999960637 0.9999999999516712 0.9999999989232475 0.9999999439757805 0.9999922122642577 0.9975387699583667 0.00016850518121137354 1.0 1.0 0.9999999999999998 1.0 1.0000000000000002 0.9999999999999996 0.9999999999999996 0.999999999999999 0.9999999999999987 0.999999999999998 0.9999999999999974 0.9999999999999968 0.9999999999999968 0.9999999999999972 0.9999999999999967 0.9999999999999964 0.9999999999999953 0.9999999999999953 0.9999999999999944 0.9999999999999937 0.9999999999999933 0.9999999999999936 0.9999999999999927 0.9999999999999922 0.999999999999992 0.9999999999999907 0.9999999999999905 0.9999999999999899 0.9999999999999899 0.9999999999999899 0.999999999999988 0.9999999999999792 0.9999999999999293 0.9999999999996037 0.9999999999968582 0.9999999999620632 0.9999999991428046 0.9999999536471871 0.9999931948758485 0.9977069945721183 0.00016851506966199427 1.0000000000000002 0.9999999999999998 0.9999999999999997 0.9999999999999998 0.9999999999999999 0.9999999999999998 0.9999999999999992 0.9999999999999993 0.9999999999999986 0.9999999999999983 0.9999999999999974 0.9999999999999968 0.9999999999999969 0.9999999999999966 0.999999999999996 0.9999999999999953 0.9999999999999947 0.9999999999999942 0.9999999999999927 0.999999999999992 0.9999999999999925 0.999999999999992 0.9999999999999913 0.9999999999999911 0.9999999999999907 0.9999999999999896 0.9999999999999893 0.9999999999999891 0.9999999999999888 0.9999999999999886 0.9999999999999871 0.9999999999999785 0.9999999999999353 0.9999999999996826 0.9999999999976833 0.9999999999728159 0.9999999993737091 0.9999999642759837 0.999994353304873 0.9979219120017759 0.00016852529103098156 1.0000000000000002 0.9999999999999996 0.9999999999999997 0.9999999999999996 0.9999999999999994 0.9999999999999997 0.9999999999999992 0.9999999999999991 0.9999999999999991 0.9999999999999983 0.9999999999999972 0.9999999999999966 0.999999999999997 0.9999999999999968 0.9999999999999964 0.9999999999999962 0.9999999999999966 0.9999999999999958 0.9999999999999949 0.9999999999999949 0.9999999999999942 0.9999999999999929 0.999999999999992 0.9999999999999918 0.9999999999999911 0.9999999999999911 0.9999999999999909 0.9999999999999909 0.9999999999999901 0.9999999999999896 0.9999999999999871 0.9999999999999771 0.9999999999999378 0.9999999999997451 0.9999999999984048 0.9999999999823883 0.9999999995855152 0.9999999746634116 0.9999955830468701 0.9981792654866088 0.00016853532982610532 1.0000000000000002 0.9999999999999996 0.9999999999999996 0.9999999999999996 0.9999999999999991 0.9999999999999992 0.999999999999999 0.9999999999999982 0.9999999999999983 0.9999999999999979 0.9999999999999977 0.999999999999997 0.9999999999999964 0.9999999999999962 0.999999999999996 0.9999999999999944 0.9999999999999947 0.9999999999999939 0.9999999999999929 0.9999999999999925 0.9999999999999925 0.9999999999999916 0.9999999999999916 0.9999999999999905 0.9999999999999908 0.9999999999999905 0.9999999999999898 0.9999999999999886 0.9999999999999877 0.9999999999999859 0.9999999999999817 0.9999999999999662 0.9999999999999192 0.9999999999997559 0.9999999999988999 0.9999999999897616 0.9999999997574928 0.9999999837742389 0.9999968062832341 0.9984616117742576 0.00016854460539054416 1.0000000000000002 0.9999999999999996 0.9999999999999991 0.9999999999999988 0.9999999999999986 0.9999999999999979 0.9999999999999973 0.9999999999999967 0.9999999999999963 0.9999999999999957 0.9999999999999937 0.9999999999999915 0.9999999999999885 0.9999999999999861 0.9999999999999827 0.999999999999978 0.9999999999999728 0.9999999999999662 0.9999999999999581 0.99999999999995 0.9999999999999398 0.9999999999999285 0.9999999999999166 0.9999999999999032 0.9999999999998892 0.9999999999998741 0.9999999999998583 0.9999999999998417 0.9999999999998241 0.9999999999998009 0.9999999999997654 0.9999999999996979 0.9999999999995594 0.9999999999992796 0.9999999999985761 0.9999999999939362 0.9999999998793423 0.9999999910368376 0.9999978838008645 0.9987961100441107 0.00016855261787047696 1.0000000000000002 0.9999999999947025 0.9999999999844973 0.9999999999706621 0.9999999999538353 0.9999999999324618 0.9999999999044188 0.9999999998666307 0.9999999998181552 0.9999999997571913 0.9999999996819491 0.9999999995907682 0.9999999994821873 0.9999999993549766 0.9999999992081724 0.9999999990410771 0.9999999988532615 0.9999999986445626 0.9999999984150891 0.9999999981652434 0.9999999978957756 0.9999999976078768 0.9999999973033266 0.9999999969847218 0.9999999966558037 0.9999999963219208 0.9999999959906373 0.9999999956725332 0.9999999953821062 0.9999999951387438 0.9999999949674303 0.9999999948987502 0.9999999949672953 0.9999999952076628 0.9999999956451869 0.9999999962866899 0.999999997052206 0.9999999941385649 0.9999988597923363 0.999030764522385 0.0001685587605676039 0.9999999999977455 0.9999970462834752 0.9999945646959233 0.9999924760607585 0.9999904319724316 0.9999883715789498 0.9999861865688969 0.9999837522964189 0.9999811060239431 0.9999782459685364 0.9999751775495577 0.9999719118461561 0.9999684643986694 0.9999648534942264 0.9999610987604304 0.999957220190113 0.9999532376958801 0.9999491707130188 0.9999450382826223 0.9999408592642841 0.9999366533216818 0.9999324418339159 0.9999282493992908 0.999924106128342 0.9999200504246536 0.9999161328534322 0.9999124211979861 0.9999090072044443 0.9999060146054507 0.9999036093383835 0.999902010197867 0.9999014986779764 0.9999024244200704 0.9999051948758144 0.9999102668811319 0.9999179768816251 0.9999289819783864 0.999941582381968 0.9999620268376344 0.9995727974125053 0.0001685627469425364 0.9999996228331715 0.022129965776727215 0.01508407520248367 0.015284052539083793 0.015041084994004202 0.014999480229613274 0.014894324242518362 0.014745974381406467 0.014554890409776429 0.01433363330850821 0.014089789351948639 0.013831400843178085 0.013563138183202563 0.013288679591109836 0.013010034845363942 0.012729794409457934 0.012448986608787564 0.012168571503869975 0.01188945852781567 0.01161183771567297 0.011335917528866184 0.011062577917426958 0.010792055129092712 0.010523396426135718 0.010258277719725657 0.009995381058385747 0.009736636578574518 0.00948059827513699 0.009228545772262429 0.008980981827854565 0.008738374064602795 0.008501298477017211 0.008271096828790238 0.008049343316459921 0.007840446011803077 0.007640422206650399 0.007515893154740733 0.007196759648548306 0.009123023711298165 0.9995512954887503 0.0001685649337146395 0.9999992665440243 0.000454441041935058 0.0001077643694296663 0.00010927666291671507 0.00011052760615691238 0.0001109684721880341 0.00011022223894244014 0.00010848950640036049 0.00010601621818470671 0.00010303715903630967 9.973063090656517e-05 9.622900580710414e-05 9.262688709246188e-05 8.898913616552922e-05 8.535891746882805e-05 8.176953504815061e-05 7.825009986211153e-05 7.480438674579722e-05 7.144807720077715e-05 6.818276092308397e-05 6.501378874770808e-05 6.194955335827176e-05 5.8986953417966064e-05 5.6117192479620064e-05 5.3352881835606144e-05 5.068726112739797e-05 4.812196082861815e-05 4.564911723143797e-05 4.327828581154997e-05 4.1005400716131776e-05 3.8831341042559856e-05 3.675732860247809e-05 3.478352145482021e-05 3.291165080194248e-05 3.1146274248608337e-05 2.947899707073267e-05 2.798747865428718e-05 2.6227481030084117e-05 0.00023129651772471241 0.9995404551739885 0.00016856696833492934 0.9999989092019305 0.0003591837999235262 5.042756923463292e-07 5.029733099727955e-07 5.300077965336179e-07 5.420248449507468e-07 5.408773764409603e-07 5.308548802018096e-07 5.146035594838088e-07 4.943224364795724e-07 4.7166236049989165e-07 4.4774759002518696e-07 4.233943540095325e-07 3.9911906401632495e-07 3.753125327546423e-07 3.521951746181356e-07 3.2996353416271226e-07 3.0864737060530154e-07 2.883334940399778e-07 2.6899106475093883e-07 2.5065035154300814e-07 2.3332954690302048e-07 2.169596730689675e-07 2.0149576279854005e-07 1.86945728208545e-07 1.7327168412085276e-07 1.6042487669151996e-07 1.4836196142917985e-07 1.370728112763803e-07 1.2652641395595955e-07 1.1668151463762923e-07 1.0750884045178817e-07 9.897240784379538e-08 9.101993106734177e-08 8.360324031406595e-08 7.652840707751421e-08 6.981454110332984e-08 8.231230316854674e-08 0.00020248025979732997 0.9995315952042345 0.00016856903423371862 0.9999985521613848 0.0012036043140178606 1.1236435581053846e-06 6.441802472283756e-08 6.32409021108227e-08 6.210953549799403e-08 6.057026813341604e-08 5.862013207998573e-08 5.626046635515828e-08 5.3513264628900406e-08 5.0422457731568794e-08 4.705175541766874e-08 4.3478852320295835e-08 3.97866473240415e-08 3.605504487264045e-08 3.235529371243017e-08 2.8747438847353953e-08 2.5278722850101236e-08 2.1985823972281796e-08 1.8895297783264568e-08 1.6026411917582913e-08 1.3392429048172846e-08 1.1001573193466244e-08 8.858242884688298e-09 6.963479442051223e-09 5.3150442173198675e-09 3.907678225163136e-09 2.73375626855928e-09 1.7842065106395592e-09 1.0507404300511178e-09 5.303847151573182e-10 3.4129268819817724e-10 4.930396174711218e-09 7.84458725830147e-09 9.522732949732502e-09 1.055787978750153e-08 1.1232796693623445e-08 1.282824660406892e-07 0.0006265356099589985 0.9995237748975219 0.000168571126174496 0.9999981989502328 0.009010460416881666 0.00036758220514431194 0.0003519105257737399 0.00034924565966281903 0.0003457359302580583 0.00034120228104188316 0.0003355137308894851 0.0003285634157961888 0.0003202930939961893 0.00031070486802786576 0.000299861463288597 0.0002878755732889114 0.0002748910499304627 0.000261061752769558 0.0002465355083591756 0.00023144242455746142 0.00021588733732386424 0.00019994968043556883 0.00018368518559915622 0.00016713162430285588 0.000150320260982435 0.00013328807909083606 0.00011609644778725174 9.884640521567259e-05 8.169206926228231e-05 6.484970802224661e-05 4.8601618121958855e-05 3.3306944306811866e-05 1.9447082638181724e-05 7.779747533772997e-06 1.9884527353453763e-06 6.694782947212862e-05 9.114109570442774e-05 0.00010192581186502268 0.00010792962427112973 0.00011161420919054628 0.00011454346375809501 0.001442534657703882 0.9995079977284258 0.00016857323466744586 0.9999981989257879 0.9999697972525281 0.9999233181936344 0.9998446321251222 0.9997318156707622 0.9995770252599917 0.9993740937762242 0.9991170674680337 0.9988016755154242 0.9984260203706714 0.9979910741136115 0.9975006732135812 0.9969608458053273 0.9963789681516217 0.9957626174003222 0.9951180241402582 0.9944449922830049 0.9937189202844583 0.9928398014556115 0.9915175614338755 0.989069345261578 0.9841364495179368 0.9743805599759651 0.9562722794077604 0.925091763815975 0.8752211806240047 0.800732562701043 0.6961994558123815 0.5577386904316388 0.3847803392883475 0.18510216941312016 0.027930384797123627 0.5515131557657992 0.5785670285509517 0.5801148224351457 0.580576301976635 0.5808068296184454 0.5809391855289272 0.5810162313414965 0.5810739005280219 0.0001683700846773661 0.9999981988874576 0.9999780965888853 0.9999598854890497 0.9999268273041295 0.9998794752375103 0.9998135310336072 0.9997270251808007 0.9996187185205757 0.9994894587015709 0.9993421717848372 0.9991817544554632 0.999014364074905 0.9988464356638919 0.9986836671598676 0.9985301349282081 0.9983869378385111 0.9982470542836122 0.9980762009261934 0.9977582372064797 0.9969749444678312 0.994997728571542 0.9904041495614713 0.980787850098994 0.9625788248268773 0.9310919755366959 0.8808735221142551 0.8063052754098843 0.7024075315383448 0.5657345103504192 0.3958583216070877 0.1996769718184055 0.028463690648083725 0.5416712258938546 0.5647200451023208 0.5560160890679279 0.5429870069683436 0.5251273560396986 0.49939739267791183 0.462163538637004 0.3768900361330105 0.00016782989181624854 0.9999981988285978 0.9999834949306005 0.9999693886750037 0.9999496208890631 0.9999205992029502 0.9998805673516709 0.9998280019142386 0.9997627576539926 0.9996861304557116 0.9996009617957822 0.9995112316037791 0.9994213412884567 0.9993353317731294 0.9992562328199472 0.9991855990890265 0.9991223207301907 0.9990566622366154 0.9989479339425432 0.9986631463570964 0.9978480298560863 0.9957156775696303 0.9907789879518876 0.9806101682999799 0.9617423268715057 0.9298102621602407 0.8799476187850795 0.8073612493285184 0.7079035752609149 0.5786203675236236 0.41861217855091437 0.232318606701472 0.05587271032319296 0.5266728558348952 0.5561257038071613 0.5406164027889749 0.5191879695885925 0.49127954626602177 0.453860495158601 0.3996813273295855 0.2910635921676623 0.00016681935487343388 0.9999981987545353 0.999986028958208 0.9999744271243269 0.9999591581437306 0.9999379071800345 0.9999088588391788 0.999871148189583 0.9998249152045285 0.9997715583832814 0.9997135631721067 0.9996540654539778 0.9995962160549767 0.999542598723201 0.9994948594308992 0.9994533880498868 0.9994156764915043 0.9993679486629413 0.9992561077330635 0.9989119021173635 0.99791004462697 0.9953559940506835 0.9896534455484277 0.9783486863034472 0.958162052474648 0.9252598011803171 0.8757085874203827 0.8059437966038847 0.7130515078023508 0.5947910949572837 0.44973720037546805 0.279335102141917 0.10556646646981271 0.4485113615045597 0.5534650022391395 0.534062422147642 0.5075092166573604 0.47398922829632345 0.43036614531923373 0.36699691843574556 0.2532347572384845 0.0001654787757268442 0.9999981986684606 0.9999873362011692 0.9999768860849824 0.9999637604613282 0.9999460320293839 0.9999223860674767 0.9998922707342022 0.9998561335670884 0.999815421600896 0.9997723447828992 0.9997293985304089 0.9996888368934344 0.9996522936389889 0.9996205748059126 0.9995932180781746 0.9995654242680473 0.999514379967494 0.9993573273672676 0.998856910980714 0.9974598986965737 0.9940932606061382 0.9869947936980534 0.9736877184050823 0.9511817584601749 0.9163801746238761 0.8665654237455852 0.7997085880154405 0.7144036802665709 0.6093943390508922 0.48302855620691854 0.3341233543676771 0.1727034040893303 0.34826677259685995 0.5109793087618623 0.5317442201359729 0.5068472256493735 0.4704260440006522 0.4237653394911857 0.3570616810100053 0.24111292691055666 0.00016395442475675167 0.9999981985759028 0.9999877153344587 0.9999776684024569 0.9999653114283091 0.9999490806654985 0.9999280386075052 0.9999020645299656 0.999871913867432 0.9998391127126112 0.9998056157173335 0.9997733599010367 0.9997438748583031 0.9997180778477587 0.9996960947186558 0.9996759828051622 0.9996465252726245 0.9995612285120162 0.9992716546354418 0.9984006935075218 0.9961650746201313 0.9912066606390209 0.9815380918424444 0.9647009998570415 0.9381578503821213 0.8998078140865976 0.848416472716345 0.783699363333808 0.7059148861022283 0.6149914593752087 0.5095165614739982 0.38663461702572344 0.24770293608897276 0.28766697656112455 0.42697831240922884 0.5011064111899748 0.5052263314692865 0.47581431666318663 0.42952657158348145 0.3621327238191387 0.24538261110964443 0.00016242648785085918 0.9999981984831235 0.9999872189957215 0.9999765513902485 0.9999637534702945 0.9999475825219921 0.999927675232673 0.9999040722349106 0.9998779758174906 0.9998509538238896 0.9998246220678726 0.9998003301220246 0.9997789438039445 0.9997607052370098 0.999744331802545 0.9997216149322781 0.9996566677633588 0.999429818328212 0.9987260194440155 0.9968715147372175 0.9926715232114715 0.984349093025877 0.969692800695643 0.9464464048008904 0.9128622392464608 0.8682148715910728 0.8130330294515805 0.7488772382000618 0.6776248665396895 0.6003981300011682 0.5164009801698417 0.4222664847303422 0.3143709018410889 0.2796505463294123 0.34724031938671107 0.4329162795380251 0.4773329748370335 0.47584376422646574 0.4413419338251117 0.3773182189277286 0.2590222495069994 0.00016104370324248406 0.999998198396439 0.9999851237049806 0.9999723936690218 0.9999572672789142 0.9999398428473398 0.9999202335722944 0.9998987580101133 0.9998764570761828 0.999854673257326 0.9998346847671952 0.9998170945027698 0.9998017095619955 0.9997855089744073 0.999754014594833 0.9996539818286104 0.9993281803703795 0.9983969860481543 0.996098470211345 0.9911468318087567 0.981710404416921 0.9656027976687619 0.9407183879524199 0.9056092660870678 0.860018322433036 0.8051385568322676 0.7434593932143182 0.6781881247000505 0.6123836670947135 0.5479623652153431 0.4847549429422462 0.41981868806188527 0.3479435419924794 0.2962600669902474 0.302095108303665 0.3544917244694759 0.4126333390451408 0.44591169102922745 0.44257237017538664 0.39613294997534526 0.28454493558181687 0.00015992766044934983 0.9999981983216799 0.9999810002860352 0.9999606846193261 0.9999411907809965 0.9999221585502758 0.9999028260566436 0.9998830383703521 0.9998629012547777 0.9998420854194433 0.9998172670515642 0.999771835024375 0.9996700357189746 0.9994230454650349 0.9988315915905904 0.9974913206613306 0.9946681858477463 0.989182361708052 0.9793723925579081 0.9632162860395604 0.938655317317664 0.9040848767814997 0.8588722860044392 0.8037412177137416 0.7408437774564472 0.6734838085484193 0.6055374107043773 0.5407536823849645 0.48208157495496595 0.4311498391963398 0.38788385713210105 0.35017929252309105 0.31378306599549066 0.2815722431907596 0.26860989251111256 0.28541335271186113 0.32566098393764403 0.3710886718691265 0.4031398676890975 0.39857068910981924 0.30565739491470145 0.00015911135707269547 0.9999981978252119 0.999468210180351 0.9989170284157128 0.9983276431512431 0.9976355740303313 0.9967814845452123 0.9956942121902058 0.9942866240703176 0.992439117538516 0.9899664179695263 0.9855992476608952 0.9792798603408461 0.9702658276278231 0.9575843048401473 0.9400589731784382 0.9163939338030196 0.88533438705916 0.8459099835128269 0.7977178206120452 0.7411741403568113 0.6776423793972994 0.6093827324414548 0.5393043453098724 0.4705737615575725 0.4061748916155999 0.34852789310975113 0.2992662888740405 0.2591744779190969 0.22826628664016882 0.20590393681434468 0.19084287299250552 0.1811325994751965 0.17526430188790418 0.1746908226107299 0.1836228986930975 0.20532693787282472 0.2402835087281901 0.2797809306803452 0.32751520775971593 0.3175645684026438 0.00015864025884362436 0.9999977147158504 0.016212683015193158 0.010577438911188572 0.010406370858404823 0.009963380556329464 0.009661363733405358 0.00930750283608912 0.008909324119343436 0.00846471884423606 0.007978858331222676 0.007459168685897545 0.0069174836447310605 0.0063599568436850116 0.005793108527506565 0.0052233153931164405 0.004656958104204021 0.004101504608666862 0.0035648314573703726 0.003055407651438176 0.0025812740961261064 0.002149441644286238 0.001765591813951003 0.0014330088941752208 0.0011523358364141166 0.0009219748288208703 0.000738138063494687 0.0005957567718669895 0.0004888251662525784 0.00041132093281174897 0.0003574116980493438 0.00032152739566746087 0.0002979363121869284 0.00028450952441589646 0.0002963350254391712 0.00037134250299840664 0.0005507452726455019 0.000867654947531005 0.0012390210689883715 0.002343100981530167 0.3172500463863501 0.00015837886633316995 0.9999972617202615 0.0003944620367726804 5.434843624200687e-05 5.231566547456646e-05 5.0408864971286615e-05 4.8170590057670416e-05 4.5352389945144475e-05 4.205220575564081e-05 3.840401384751947e-05 3.456497781094164e-05 3.078729991856146e-05 2.709257695977408e-05 2.3548496521054993e-05 2.0212243242222445e-05 1.7126258108899547e-05 1.4316521876592517e-05 1.1803142095075061e-05 9.59245771374266e-06 7.684317991451984e-06 6.069191308494608e-06 4.728901129956339e-06 3.6402474745041578e-06 2.77479058574098e-06 2.1016239702145486e-06 1.5893466402250725e-06 1.2076028559218581e-06 9.294944854596591e-07 7.311558924096689e-07 5.932368265367366e-07 4.999601681741185e-07 4.3845726308475427e-07 3.9767656291246076e-07 3.758261251962992e-07 4.2105874039753995e-07 6.668388595541494e-07 1.285404156111142e-06 2.414838348295247e-06 3.8672569222836515e-06 5.4794318987526834e-05 0.31691580533233366 0.00015813776609856358 0.9999968073991573 0.0003429821532739637 2.2058124259310805e-07 1.7246233146380148e-07 1.7012533415052296e-07 1.6264124278983619e-07 1.508423097399566e-07 1.363628950949577e-07 1.203938648565323e-07 1.0411097972284556e-07 8.906164991302296e-08 7.501619319143621e-08 6.223218853072176e-08 5.085673145638682e-08 4.094767483107869e-08 3.2479982984587284e-08 2.538033135709856e-08 1.953923012953318e-08 1.4824090958564976e-08 1.109168307036898e-08 8.193452188749142e-09 5.986360373758376e-09 4.338178988463731e-09 3.130183947520752e-09 2.26126296217158e-09 1.6462998264710619e-09 1.2185960448082707e-09 9.256234468219861e-10 7.284165924391547e-10 5.980328952443511e-10 5.12847057015614e-10 4.561087861782133e-10 4.27534743367166e-10 5.290800422681919e-10 1.0747581845616503e-09 2.5166653713176892e-09 5.218444305039059e-09 1.2717377634631351e-08 4.764382321142125e-05 0.3165842421595625 0.00015789575247905914 0.9999963533988969 0.0010499797628788217 8.323048667417663e-07 5.734427296088666e-08 5.6224011926319964e-08 5.5219715177997025e-08 5.408870278158031e-08 5.28662979752652e-08 5.158119650664951e-08 5.025733998129646e-08 4.8915210036230205e-08 4.756477964069193e-08 4.6215281560052706e-08 4.487326933605794e-08 4.354321748953377e-08 4.222806562996023e-08 4.092958510754876e-08 3.96486610405548e-08 3.8385575674534824e-08 3.714004284850398e-08 3.591127629340681e-08 3.469797258736716e-08 3.349825850835047e-08 3.230951573246239e-08 3.112801808920175e-08 2.9948563215268284e-08 2.876366105250107e-08 2.756221372773051e-08 2.6327225762499688e-08 2.5030934052763227e-08 2.3624128560834598e-08 2.2006913199770066e-08 1.9922741062378106e-08 1.6262057601492514e-08 9.936586457090842e-10 1.9531219122925857e-09 2.19163081049182e-09 3.3306910127857624e-08 0.0001752368458688697 0.3162541040013595 0.00015765353813897802 0.9999959034708904 0.007061104425934395 0.00034657615505375377 0.00033581978517648633 0.00033324685931512995 0.0003302491664594455 0.00032688435226593186 0.0003232310475481812 0.0003193527399522331 0.00031530227539811447 0.00031112145222727335 0.0003068429327894725 0.0003024913933842408 0.000298085356084929 0.00029363817289287356 0.0002891597320407447 0.0002846565808280275 0.00028013257855246824 0.0002755897134367561 0.0002710279500952022 0.0002664449596455514 0.0002618360852316924 0.00025719384671426176 0.00025250691029027637 0.00024775829076169765 0.00024292320036666784 0.0002379648175451602 0.00023282692461375643 0.00022742113430311705 0.0002215995212013894 0.00021509263835461584 0.0002073358525867614 0.00019681021258583306 0.00017617663067823178 1.5154505073871487e-05 2.4322478143231885e-05 2.599270578258052e-05 2.6916435107867455e-05 0.00040026801686269636 0.31592172612225333 0.0001574118149028764 0.9999959034179147 0.9999676919438071 0.9999240708222272 0.9998560192612324 0.9997681431264476 0.9996614759738371 0.9995388638861249 0.9994029036948703 0.9992560353233905 0.9991003428145918 0.998937533052366 0.9987689655607279 0.9985956895876424 0.9984184985867907 0.9982379814151873 0.9980545822876852 0.9978685788080458 0.9976801736351633 0.997489448260246 0.997296418989947 0.9971009900161668 0.9969029627370496 0.9967020155035211 0.9964976521236134 0.9962891216841351 0.9960753215488308 0.995854601727366 0.9956244305770174 0.9953808196860644 0.9951170562918658 0.9948208852696523 0.9944665693589945 0.9939846705689631 0.9928181091744545 0.14489735182548372 0.17563769531258988 0.17995013661040304 0.18206921711296126 0.18325233410342354 0.18461734389278572 0.00015709929735803306 0.9999959033280166 0.999976501804027 0.9999610254206693 0.9999374929379247 0.9999104353411294 0.9998808684187834 0.999850792903162 0.9998215605146098 0.9997942183758324 0.9997693968072551 0.9997473906847713 0.999728226859772 0.9997117390969791 0.999697626520577 0.999685494960211 0.9996748798721883 0.9996652474021602 0.9996559760803516 0.999646316028744 0.9996353209639477 0.9996217466551539 0.9996039020286903 0.9995794367152082 0.999545035899664 0.9994959860549049 0.9994255411113374 0.9993240332069399 0.9991775479417906 0.9989659601142786 0.9986598951719082 0.9982155444654632 0.9975640597155533 0.9965801122015541 0.9946903553096896 0.1395017328190868 0.16957582410625602 0.16745522202311622 0.16059638477972973 0.14920218878204314 0.12273159012333587 0.0001565093255893469 0.9999959031745722 0.9999826443558777 0.9999713874374891 0.9999593444645923 0.9999460824285432 0.9999327161411086 0.9999199652025729 0.9999084081115355 0.999898338768008 0.9998898433984743 0.9998828535330704 0.9998772094298778 0.999872707256926 0.9998691324280681 0.9998662773407546 0.9998639504446822 0.9998619753866517 0.9998601858658871 0.9998584143750074 0.9998564751389973 0.9998541371152131 0.9998510796907069 0.9998468154894733 0.9998405507640954 0.9998309284114038 0.9998155413615912 0.999790022183056 0.9997463216244052 0.9996694917535109 0.9995317168273681 0.9992813128056285 0.9988221390165203 0.99796951060438 0.9961257955717376 0.29557126170659304 0.1663284233749926 0.16073658581406622 0.14974727463490353 0.13287420829771812 0.09799012366865584 0.00015554881056499694 0.9999959029559573 0.9999860173874279 0.999977737080008 0.9999695926707561 0.999961598206537 0.9999539775030147 0.9999470687710719 0.9999410661537311 0.9999360371153491 0.9999319441188108 0.9999286864128945 0.9999261347416291 0.9999241549652521 0.999922621971425 0.9999214253599771 0.9999204704840424 0.9999196760067085 0.9999189701042551 0.9999182854000785 0.999917552404015 0.9999166913274218 0.9999155999506626 0.9999141330813438 0.999912064923194 0.9999090119463641 0.9999042650549606 0.9998964060922999 0.9998824092397751 0.9998555186482235 0.9998002855065338 0.9996811996076371 0.9994175203456425 0.9988273687713025 0.9973617338902669 0.5091834211895473 0.20690734549667564 0.15872929768487437 0.14583143457745928 0.12622339017754372 0.08923513062044783 0.00015438632853276976 0.9999959026551013 0.9999883751917519 0.9999819663041365 0.9999760604733484 0.9999705859309097 0.9999656509645266 0.9999613529842197 0.9999577393091863 0.9999547909920238 0.9999524435817517 0.9999506089926086 0.9999491935208481 0.9999481089409124 0.999947277716275 0.9999466344394518 0.9999461248411577 0.9999457036180185 0.999945331710488 0.9999449733121791 0.9999445925721993 0.9999441495838922 0.9999435953317242 0.9999428639899334 0.9999418599137225 0.9999404333160073 0.9999383272379723 0.9999350500580245 0.9999295375642975 0.9999192063868603 0.9998972531561884 0.9998450424262139 0.9997115737266319 0.9993606899681808 0.9983633300581982 0.7028758921512103 0.34703645502361774 0.19127083948645193 0.14916484680088402 0.12644497260183954 0.08914446868692953 0.00015315759179911797 0.99999590224876 0.9999901332677715 0.9999851657249648 0.9999807244306632 0.9999767783616184 0.9999733525739649 0.9999704649043017 0.9999680988233113 0.9999662076377748 0.9999647259198171 0.9999635823752695 0.9999627086736138 0.9999620442624538 0.9999615380316255 0.9999611480613787 0.9999608402679032 0.9999605866519495 0.9999603634025322 0.9999601489691902 0.9999599220480613 0.9999596593706382 0.9999593328891294 0.9999589059991674 0.9999583276149112 0.9999575221576849 0.9999563701482775 0.9999546647194538 0.9999519975524375 0.9999474145450833 0.9999382839013083 0.9999164879250991 0.9998560164182116 0.9996750990537844 0.9990914708499592 0.8438739796154135 0.5426769335338827 0.3010694930608401 0.18452295459748505 0.13531615728032262 0.0926765754190515 0.00015199225474149224 0.9999959016915927 0.999991551982336 0.9999877626751787 0.9999844346625103 0.9999815531565934 0.9999791180925852 0.9999771135041754 0.9999755032585775 0.9999742363583343 0.999973256008214 0.9999725065939525 0.9999719381698068 0.9999715082626641 0.9999711820585211 0.9999709315312871 0.9999707342594343 0.9999705720256269 0.9999704294826139 0.9999702928698112 0.9999701487322004 0.9999699825196343 0.99