# vtk DataFile Version 3.0
vtk output
ASCII
DATASET RECTILINEAR_GRID
DIMENSIONS 41 41 1
X_COORDINATES 41 double
0 1 2 3 4 5 6 7 8 9 10 11 12 13 14 15 16 17 18 19 20 21 22 23 24 25 26 27 28 29 30 31 32 33 34 35 36 37 38 39 40 
Y_COORDINATES 41 double
0 1 2 3 4 5 6 7 8 9 10 11 12 13 14 15 16 17 18 19 20 21 22 23 24 25 26 27 28 29 30 31 32 33 34 35 36 37 38 39 40 
Z_COORDINATES 1 double
0
POINT_DATA 1681
FIELD FieldData 1
Concentracao 1 1681 double
1.0 1.0 1.0 1.0 1.0000000000000002 1.0 0.9999999999999999 0.9999999999999998 0.9999999999999998 0.9999999999999991 0.9999999999999993 0.9999999999999993 0.9999999999999986 0.9999999999999982 0.9999999999999981 0.9999999999999979 0.9999999999999978 0.9999999999999977 0.9999999999999973 0.9999999999999968 0.9999999999999962 0.9999999999999961 0.9999999999999959 0.9999999999999958 0.999999999999995 0.9999999999999942 0.9999999999999934 0.9999999999999913 0.9999999999999795 0.9999999999999183 0.9999999999996068 0.9999999999979882 0.9999999999891737 0.9999999999363816 0.9999999995640412 0.9999999961318977 0.9999999478818794 0.9999986916236377 0.9999289922503889 0.9923583697755707 0.00013664360165537996 1.0 1.0 1.0000000000000004 0.9999999999999999 0.9999999999999997 0.9999999999999996 0.9999999999999993 0.9999999999999987 0.9999999999999981 0.999999999999998 0.9999999999999969 0.9999999999999962 0.9999999999999953 0.9999999999999951 0.9999999999999944 0.9999999999999938 0.9999999999999933 0.9999999999999929 0.9999999999999927 0.9999999999999916 0.9999999999999912 0.9999999999999911 0.9999999999999906 0.9999999999999892 0.9999999999999889 0.9999999999999882 0.9999999999999871 0.9999999999999845 0.9999999999999714 0.9999999999999084 0.9999999999995901 0.9999999999979641 0.9999999999892761 0.9999999999382563 0.9999999995846124 0.999999996362797 0.9999999511997637 0.9999987665540092 0.9999319842515215 0.9925284081586071 0.00013666181674119065 1.0 1.0 1.0000000000000002 1.0000000000000002 1.0 0.9999999999999996 0.9999999999999996 0.9999999999999989 0.9999999999999988 0.9999999999999982 0.9999999999999978 0.9999999999999977 0.9999999999999972 0.9999999999999964 0.999999999999997 0.9999999999999962 0.9999999999999953 0.9999999999999949 0.9999999999999949 0.9999999999999947 0.9999999999999944 0.9999999999999938 0.9999999999999929 0.999999999999992 0.9999999999999917 0.9999999999999909 0.99999999999999 0.9999999999999882 0.9999999999999744 0.9999999999999069 0.9999999999995817 0.9999999999979929 0.9999999999898547 0.9999999999438137 0.9999999996333749 0.9999999968427672 0.9999999575809666 0.9999989066362024 0.9999376631951953 0.9928622760987905 0.0001366836127776419 1.0 1.0 0.9999999999999998 1.0 1.0000000000000002 0.9999999999999996 0.9999999999999996 0.999999999999999 0.9999999999999987 0.999999999999998 0.9999999999999974 0.9999999999999968 0.9999999999999968 0.9999999999999972 0.9999999999999967 0.9999999999999964 0.9999999999999953 0.9999999999999953 0.9999999999999944 0.9999999999999937 0.9999999999999933 0.9999999999999936 0.9999999999999927 0.9999999999999922 0.999999999999992 0.9999999999999907 0.9999999999999902 0.999999999999987 0.9999999999999711 0.9999999999998967 0.9999999999995572 0.9999999999980148 0.9999999999906604 0.999999999951557 0.9999999996991477 0.9999999974710241 0.9999999658404926 0.9999990910068259 0.9999454510660137 0.9933487397190743 0.00013670798511826912 1.0000000000000002 0.9999999999999998 0.9999999999999997 0.9999999999999998 0.9999999999999999 0.9999999999999998 0.9999999999999992 0.9999999999999993 0.9999999999999986 0.9999999999999983 0.9999999999999974 0.9999999999999968 0.9999999999999969 0.9999999999999966 0.999999999999996 0.9999999999999953 0.9999999999999947 0.9999999999999942 0.9999999999999927 0.999999999999992 0.9999999999999925 0.999999999999992 0.9999999999999913 0.9999999999999911 0.9999999999999907 0.9999999999999896 0.9999999999999887 0.9999999999999835 0.9999999999999615 0.9999999999998682 0.9999999999994866 0.999999999997933 0.9999999999913178 0.9999999999595783 0.9999999997690914 0.999999998137263 0.9999999746826203 0.999999295436957 0.9999546611798458 0.9939707396568405 0.0001367336828660969 1.0000000000000002 0.9999999999999996 0.9999999999999997 0.9999999999999996 0.9999999999999994 0.9999999999999997 0.9999999999999992 0.9999999999999991 0.9999999999999991 0.9999999999999983 0.9999999999999972 0.9999999999999966 0.999999999999997 0.9999999999999968 0.9999999999999964 0.9999999999999962 0.9999999999999966 0.9999999999999958 0.9999999999999949 0.9999999999999949 0.9999999999999942 0.9999999999999929 0.999999999999992 0.9999999999999918 0.9999999999999911 0.9999999999999911 0.9999999999999891 0.9999999999999803 0.9999999999999422 0.9999999999997977 0.9999999999992835 0.9999999999974942 0.9999999999911148 0.9999999999654449 0.9999999998308057 0.9999999987444381 0.9999999829419646 0.9999994970205437 0.9999644693166384 0.9947161350332862 0.0001367593192660011 1.0000000000000002 0.9999999999999996 0.9999999999999996 0.9999999999999996 0.9999999999999991 0.9999999999999992 0.999999999999999 0.9999999999999982 0.9999999999999983 0.9999999999999979 0.9999999999999977 0.999999999999997 0.9999999999999964 0.9999999999999962 0.999999999999996 0.9999999999999944 0.9999999999999947 0.9999999999999939 0.9999999999999929 0.9999999999999925 0.9999999999999925 0.9999999999999916 0.9999999999999916 0.9999999999999905 0.9999999999999908 0.9999999999999891 0.9999999999999818 0.9999999999999526 0.9999999999998511 0.9999999999995156 0.9999999999984966 0.9999999999955956 0.9999999999875747 0.9999999999637774 0.9999999998699477 0.9999999992185407 0.9999999897738413 0.9999996754985964 0.9999742571850213 0.9955346230691683 0.00013678329819542045 1.0000000000000002 0.9999999999999996 0.9999999999999991 0.9999999999999988 0.9999999999999986 0.9999999999999979 0.9999999999999973 0.9999999999999967 0.9999999999999963 0.9999999999999957 0.9999999999999937 0.9999999999999915 0.9999999999999885 0.9999999999999861 0.9999999999999827 0.999999999999978 0.9999999999999728 0.9999999999999662 0.9999999999999581 0.99999999999995 0.9999999999999398 0.9999999999999285 0.9999999999999166 0.9999999999999023 0.9999999999998841 0.9999999999998529 0.9999999999997775 0.9999999999995617 0.9999999999989295 0.9999999999971677 0.9999999999926696 0.9999999999822784 0.9999999999606085 0.999999999918557 0.9999999998286622 0.9999999994600853 0.9999999946622492 0.9999998191443544 0.9999829085237252 0.996504773199767 0.00013680424605270417 1.0000000000000002 0.9999999999946944 0.9999999999844742 0.9999999999706184 0.9999999999537662 0.9999999999323606 0.9999999999042749 0.9999999998664274 0.9999999998178748 0.9999999997568108 0.9999999996814394 0.9999999995900943 0.9999999994813038 0.9999999993538233 0.9999999992066665 0.999999999039103 0.9999999988506509 0.9999999986410683 0.9999999984103388 0.999999998158673 0.9999999978865238 0.9999999975946269 0.9999999972840572 0.9999999969563198 0.9999999966134279 0.9999999962579249 0.9999999958926714 0.9999999955201431 0.9999999951408127 0.9999999947506404 0.9999999943389026 0.9999999938909847 0.9999999934043152 0.9999999929239198 0.9999999925784047 0.9999999925246926 0.9999999913932927 0.999999915763653 0.9999907778224925 0.9971863465368671 0.00013682040418249385 0.999999999997742 0.9999970417403071 0.9999945567782573 0.9999924650224636 0.9999904178949882 0.9999883543737313 0.9999861660337962 0.9999837279977223 0.9999810775879053 0.9999782129860635 0.9999751395696239 0.9999718683572419 0.9999684147977917 0.9999647970357348 0.9999610344776243 0.9999571467775262 0.9999531533376136 0.9999490728319003 0.9999449231767384 0.999940721581638 0.9999364853076558 0.9999322322585085 0.99992798204632 0.9999237577070413 0.9999195877459628 0.9999155091588389 0.9999115716544871 0.9999078439428732 0.999904422340366 0.9999014438654062 0.9998991038584393 0.9998976789613513 0.9998975527355269 0.9998992290883093 0.9999033418829362 0.9999104647005893 0.9999215488215444 0.9999348403356122 0.999954253424035 0.9987986317075345 0.00013683105682219757 0.9999996220701346 0.020151668472471324 0.013703018854681717 0.01386430380811928 0.01362510908877727 0.013569249840769628 0.01345572929426457 0.013302817039571646 0.013111052308251442 0.012891912651706448 0.01265236590064242 0.01239975741241698 0.012138370535963207 0.011871573699389317 0.011601222022982615 0.01132967310452636 0.011057877795176781 0.010786718604205015 0.010517027247052163 0.010248994001371452 0.009982827641189787 0.009719330239299278 0.009458738284879167 0.00920025598858326 0.008945403393721076 0.008693098162011822 0.008445114866982135 0.00820032239179187 0.007960002429314992 0.007724817059138392 0.0074954726828423465 0.007272863704073143 0.0070586514623833104 0.0068548093686431714 0.006665831032321218 0.006488997210700762 0.006381648608854274 0.0061119470817499865 0.007750536876314512 0.998765954087242 0.0001368369116762302 0.9999992657637449 0.0004061097047701159 8.892523947328954e-05 8.991229988802322e-05 9.069823580507645e-05 9.082050069217284e-05 8.996717694794985e-05 8.83083308612952e-05 8.604738952109165e-05 8.337990272828472e-05 8.045417792905778e-05 7.738003440930693e-05 7.423575599221383e-05 7.107487503930054e-05 6.79329192563936e-05 6.483707282968428e-05 6.181079212450006e-05 5.885720420191851e-05 5.59887065133711e-05 5.320646991346661e-05 5.051456875700052e-05 4.7919360690406314e-05 4.5418240844668405e-05 4.3004314567209293e-05 4.0687200372036914e-05 3.8461695259243796e-05 3.632914236847337e-05 3.428387613490236e-05 3.2333571025245985e-05 3.047588106415085e-05 2.8712503653020933e-05 2.7045762470400615e-05 2.5477611869615433e-05 2.401153388603078e-05 2.2653308207372528e-05 2.139834352479284e-05 2.0304320942215757e-05 1.9032382674329677e-05 0.00019155579753661465 0.9987428581510857 0.00013684235997190745 0.9999989084101785 0.00032712982653160976 3.832042904692078e-07 3.7548547378131783e-07 3.941127231397963e-07 4.0148401566913297e-07 3.99040523986295e-07 3.900640472166936e-07 3.765364471465424e-07 3.601208041883465e-07 3.420599163704947e-07 3.231967286094414e-07 3.041384758008544e-07 2.852666951617073e-07 2.6686588374374215e-07 2.490937421952516e-07 2.3208737456750637e-07 2.1586359766368764e-07 2.0047797458772007e-07 1.8590279851068413e-07 1.7215248456164145e-07 1.592322863919522e-07 1.4708763351204332e-07 1.3568108527931181e-07 1.250111663874456e-07 1.1504566136351925e-07 1.0574581561585147e-07 9.707738525654083e-08 8.902868030685009e-08 8.15750082094073e-08 7.468611127962796e-08 6.834062303106385e-08 6.251393841004673e-08 5.717210257062069e-08 5.2284046640558695e-08 4.7724033540321025e-08 4.349772569643664e-08 5.32735381941466e-08 0.00017049899192955487 0.9987215872568332 0.00013684789118256177 0.9999985513313473 0.0010965430645834729 9.323023895590381e-07 5.307229151454669e-08 5.202563194647985e-08 5.097422926394293e-08 4.9570236567315406e-08 4.780706975361482e-08 4.568497731313103e-08 4.322406074802871e-08 4.046546822523051e-08 3.746909290001137e-08 3.430775886547153e-08 3.105893539959422e-08 2.7797078889234616e-08 2.4588434805633568e-08 2.148866420173818e-08 1.8541633102893533e-08 1.5781266128283255e-08 1.3232226939456287e-08 1.0912040377230874e-08 8.832064568641929e-09 6.997924631448134e-09 5.4100642304483255e-09 4.0637754825858095e-09 2.9492372545535614e-09 2.0519520912941995e-09 1.3536700177203672e-09 8.335771720412762e-10 4.699352467984813e-10 2.4187208921321756e-10 1.8334621571071677e-10 2.9729560344909872e-09 5.142329145910742e-09 6.486854192271719e-09 7.339651309382628e-09 7.902138132816986e-09 9.186260983666144e-08 0.0005275536778198807 0.9987011615769751 0.00013685349031470237 0.9999981978355662 0.008211917886947596 0.00033368233233066594 0.0003203698036517323 0.00031772566569027285 0.00031422512795555935 0.00030969784260716037 0.00030401290205357955 0.00029706427461164754 0.0002887942291939399 0.00027920524779676887 0.0002683603756502917 0.0002563725449971266 0.0002433857673683925 0.00022955406179357848 0.00021502541058163372 0.00019993059548995167 0.00018437668929512552 0.00016845020979467778 0.00015222470479943 0.00013577539310316976 0.00011920040941909635 0.00010263951056906322 8.629117360022319e-05 7.041517043852471e-05 5.532261525988662e-05 4.135471715270638e-05 2.885481440115191e-05 1.8146807761913254e-05 9.533476017893588e-06 3.329652934247527e-06 1.2083475603963416e-06 4.9756938433658435e-05 7.277522012982612e-05 8.349233652317484e-05 8.947998150578712e-05 9.31552301244726e-05 9.591017598863494e-05 0.0012139761386816949 0.998672551344039 0.00013685913799829953 0.9999981978110901 0.9999697732521524 0.9999232926155358 0.9998446040646263 0.9997317840527974 0.9995769887617216 0.9993740508799123 0.99911701646712 0.9988016145670141 0.9984259475698064 0.9979909875827099 0.997500571114977 0.9969607230342873 0.9963787486864313 0.9957614109016724 0.995109082842727 0.9943926843102661 0.993483404561122 0.9919931115568651 0.9890011843995165 0.9827121478909147 0.9701839863696635 0.9473196123276261 0.9092818793800272 0.8513385819285627 0.7699790629324156 0.6640386386203257 0.5355754181890846 0.39046876852780976 0.23912022312461784 0.09842256651752998 0.020871245143811754 0.5247838814573337 0.5750557072647494 0.5788020715064439 0.5797193571697002 0.5801299925175609 0.580351880713538 0.5804775550510908 0.5805785480769278 0.00013666004077000958 0.9999981977727087 0.9999780792758021 0.9999598654274452 0.9999268049469805 0.9998794506297575 0.999813503830412 0.9997269948840142 0.9996186845412196 0.9994894204466866 0.9993421287329717 0.9991817062240314 0.9990143103720168 0.9988463723517641 0.9986835081882931 0.9985288688561426 0.9983770001026898 0.9981890581328243 0.9978176993458272 0.9968388534811489 0.9942706709235755 0.9882326231457604 0.9756931580847304 0.9525040530632801 0.9138670375634792 0.8552170494548268 0.7733403908914689 0.6674151941879153 0.5397834462706721 0.3963337506866492 0.2469920831319106 0.10739566709611197 0.01679513491672692 0.5115287255788251 0.5609260722715236 0.5546823966115975 0.5421510459209905 0.5244938462455342 0.4988766365699016 0.4617237554303698 0.3765482127958951 0.00013612741221316992 0.9999981977137677 0.999983481967182 0.9999693714698404 0.9999496012899148 0.9999205775298756 0.999880543608474 0.9998279759239023 0.9997627291681512 0.9996860992240576 0.9996009276281664 0.9995111944129489 0.9994213009747424 0.9993352826227522 0.9992560567521196 0.9991839564385309 0.9991095484367817 0.9989841919620406 0.9986340676917628 0.9975769176979176 0.9947339021087177 0.9881101187868098 0.9746067711649209 0.9501580868011515 0.9102890224701949 0.8510202070110617 0.7698753825959871 0.6666978784257606 0.544031902951783 0.40719721437501877 0.26446975034533104 0.1285973533369831 0.02912120443503623 0.48683958927370696 0.5514798110086846 0.5391604695547142 0.5183249458295585 0.49065010921834357 0.45336217739089013 0.3992799656160432 0.2907820930958007 0.00013512995817159076 0.9999981976396005 0.9999860180363909 0.9999744118209183 0.9999591401949793 0.9999378871769926 0.9999088369389781 0.999871124378471 0.9998248893949069 0.9997715304830072 0.9997135331331846 0.9996540332997034 0.9995961816258546 0.9995425514602168 0.9994945971877051 0.999450769978888 0.9993962447394394 0.9992634297570921 0.9988256794513046 0.997489915021478 0.9940039123919485 0.986184930723344 0.970851168534814 0.9441144314589637 0.9020631708983744 0.8416656330477712 0.7615835582926216 0.6625994241072641 0.5475465784900141 0.42093128589972734 0.2888235076003875 0.16016061723689248 0.0554025771364696 0.3991133072523872 0.546654364786641 0.5323130067968609 0.5065574038229216 0.4733263184701861 0.4298578793979441 0.3666032749557908 0.2529720266333213 0.00013380683972328785 0.999998197553402 0.999987326332378 0.999976871815924 0.9999637434665183 0.9999460129698454 0.9999223651983964 0.9998922481324174 0.9998561092395613 0.99981539554739 0.9997723170360027 0.9997293691661792 0.9996888052507423 0.9996522318913857 0.9996200210331353 0.999587846660291 0.9995290864063341 0.9993353320619226 0.9986755661080501 0.9967569183596157 0.9920435204659304 0.9820821035084921 0.9636166916566872 0.9330898815064719 0.8874447574794586 0.8249453967128367 0.7457061008264041 0.6516559227830299 0.5459856147540051 0.43239214910304286 0.3146871740586781 0.19781782199067605 0.09384547435074099 0.28776484070332115 0.49177336913094044 0.5279811401643552 0.50570253142898 0.4696817020461556 0.42321634775763745 0.3566480072669362 0.24084460687552225 0.000132303283151223 0.999998197460711 0.9999877057707522 0.9999776544723229 0.9999652947736646 0.9999490619839781 0.9999280181985547 0.9999020425245062 0.9998718903323194 0.9998390877083805 0.9998055893283073 0.9997733321739493 0.9997438411832795 0.9997179168557315 0.9996942577616678 0.9996607490658898 0.9995585957427318 0.9991828808363089 0.9979885081657364 0.9948249676853562 0.9877183609686095 0.9738800872578106 0.9500851490152956 0.9133948173588282 0.8619994659472076 0.7958337804334716 0.7166868472272251 0.6276955585733556 0.5324156359831012 0.43383413439513363 0.33383331824936807 0.2338599953893189 0.13885671416206538 0.2085525774209166 0.38633204683482497 0.48659605055147104 0.5009896373197843 0.47440977842901333 0.4288257158726625 0.3616651936166731 0.2450884984155502 0.00013079762525654886 0.999998197367799 0.9999872092267383 0.9999765372248426 0.9999637366246621 0.9999475637149994 0.9999276547971777 0.9999040503470457 0.9998779525859341 0.9998509293508805 0.9998245964236839 0.9998003005452671 0.9997788340906038 0.9997594788664791 0.9997336119281078 0.9996564677320857 0.9993636977041529 0.9983986450471498 0.995761830995004 0.9896843690391456 0.9776015995226485 0.9564789437765243 0.9235027649047597 0.8769268773201103 0.8167547952310369 0.7449399141125437 0.6649775279538227 0.5810099256886412 0.4967308502160212 0.41444744800585387 0.33460268482178634 0.2561448406062297 0.17883655300755974 0.1751861729861015 0.27814468194397063 0.39590282602127275 0.46100386936786336 0.4696320287451931 0.43915772646362977 0.37648550989657764 0.2586533078635438 0.00012943646173693132 0.9999981972809947 0.9999851132094567 0.9999723787658527 0.9999572497056093 0.9999398233527015 0.9999202124370353 0.9998987352202421 0.9998764321883393 0.999854643746222 0.9998346072593404 0.9998165418945928 0.9997975446526173 0.9997604523688612 0.9996352842773992 0.9992015123417162 0.9979062690654156 0.9946244128537434 0.9874702901063804 0.9738307229102633 0.950749748225222 0.9156389873702523 0.8671186904604887 0.8056440232656589 0.7336595210294053 0.6551711083942731 0.5748816796412872 0.49716577080892055 0.4251916734974202 0.36035010861790057 0.3020636961604969 0.24801960194482026 0.19525496236198384 0.1676043250747948 0.20204295041902995 0.2852291979261072 0.3706042058990921 0.42373631575539655 0.43264224575928334 0.3926316585331111 0.28357449699588394 0.000128338442225485 0.9999981972060032 0.9999808987454667 0.9999601627731344 0.999939899162625 0.9999195773722281 0.999898037532547 0.9998744274701458 0.9998475536087605 0.9998143719080975 0.9997601022183364 0.9996259822834174 0.9992931160567261 0.998483713191288 0.9966260245023563 0.9926787212428535 0.9849822465563272 0.9712538112804289 0.9488401050807588 0.9152489397906893 0.868855510826022 0.8095520856708494 0.7390657551153829 0.6608223193227164 0.5793424370455316 0.4993954979829054 0.4251498639997312 0.359572807233453 0.30414801863440694 0.25889261192809615 0.2225284895087934 0.19268162616174056 0.166195768533228 0.14661567966378133 0.1498534692569439 0.18689612926882 0.2500553626993373 0.31819435702429094 0.37083716845108633 0.3826745137067211 0.3019094748382073 0.00012753296155200062 0.9999981963558422 0.9990658266511937 0.9980819315665949 0.9970208634293719 0.9957684114782406 0.9942171274316947 0.9922368807749817 0.9896675715917027 0.9862887919850756 0.981757053468911 0.9738330037670013 0.9624762701391256 0.9465094082007686 0.924508697977945 0.89495524907891 0.8564851230852208 0.80821873627006 0.7501115126000519 0.6832064908341641 0.609683408683547 0.5326430524937787 0.45567380385039 0.3823043657005799 0.3154942731880012 0.2572856845705567 0.20867761938549637 0.1697233880568933 0.13975839299941922 0.11767659830920968 0.10215459879215905 0.09175989798548057 0.08493974681261288 0.08098999482972422 0.08247352964676248 0.09491148400822272 0.12269388377530684 0.16696039222050718 0.21837973038923852 0.2853827396312753 0.29210333009194417 0.00012705328720916982 0.9999977124666752 0.014631450950071706 0.00947934264123308 0.009270747832729314 0.008822104441833237 0.008498336025245183 0.008126313391599775 0.007712391803407225 0.007254831890839581 0.006758674620155363 0.0062330664768082454 0.005689697701256938 0.005135873460396765 0.0045795498560711 0.0040288885760255 0.003492272618713626 0.002978842756262726 0.0024975398124887486 0.002056735978731089 0.001663064103767418 0.0013207717797292036 0.0010315394769088442 0.0007941123560589779 0.0006047110575549398 0.0004578844920707077 0.0003471278480251175 0.0002658120314342585 0.0002076307967819182 0.0001671281239011251 0.00013974552573443384 0.00012173834364964758 0.00010988102880561851 0.00010363345830656115 0.00011513629408553272 0.00017540364233400432 0.0003208484379115739 0.0005822354206811359 0.0009011590950800018 0.0018159666513208306 0.29187997590050213 0.00012678733482169397 0.9999972594492041 0.00035305811152151615 4.3872215394151255e-05 4.182075815198634e-05 3.9895465821608354e-05 3.771238615174996e-05 3.5074384197199035e-05 3.20694998624908e-05 2.881627463352193e-05 2.5455985315114946e-05 2.2224946725553834e-05 1.912445743179674e-05 1.6211346607679665e-05 1.3531380356396876e-05 1.1115669756447381e-05 8.979834152130656e-06 7.131169406932161e-06 5.564094371656068e-06 4.265530591393873e-06 3.214248453535923e-06 2.3828175685749936e-06 1.7410853848938833e-06 1.2574416485132064e-06 9.01340328149222e-07 6.449206606290666e-07 4.639700710914035e-07 3.3879559970973294e-07 2.536567407125917e-07 1.9678506646159894e-07 1.5945752710517315e-07 1.3526156961957218e-07 1.193363490557726e-07 1.1169295486599011e-07 1.4083416736097272e-07 2.918102660796733e-07 6.855228855455082e-07 1.4312226362079846e-06 2.4289131280723115e-06 4.267711243180929e-05 0.291643643153361 0.00012654215192050146 0.9999968051103968 0.000310970487349334 1.6621213183319818e-07 1.2405908636443032e-07 1.2077942798058756e-07 1.1382334999836296e-07 1.038698765368688e-07 9.217048335235411e-08 7.965007354608124e-08 6.722554966992206e-08 5.6095823825750505e-08 4.597550727760416e-08 3.701413981240004e-08 2.9273759421562617e-08 2.274548701359138e-08 1.7360242179222426e-08 1.3015126215424708e-08 9.585840003682662e-09 6.938648660588496e-09 4.94067310214569e-09 3.465435158685275e-09 2.399619647147157e-09 1.6458076669866905e-09 1.1230863949780767e-09 7.673434902144567e-10 5.289111173057953e-10 3.7144199764108813e-10 2.685748442473799e-10 2.0208932715415082e-10 1.594819273050172e-10 1.3219219415823678e-10 1.1423230159258018e-10 1.0632054179507558e-10 1.5617711672672998e-10 4.2639091461881e-10 1.178581499312719e-09 2.656607045288331e-09 7.3822354735215955e-09 3.793623820710352e-05 0.2914095217811976 0.00012629616409912797 0.999996351062473 0.000952101714023177 6.842278419005169e-07 4.6936993789933186e-08 4.596523588490725e-08 4.505969099195836e-08 4.4044882577745666e-08 4.2951552921664076e-08 4.180489902255081e-08 4.062574641749327e-08 3.9431407827017385e-08 3.8231004502505156e-08 3.703263834413314e-08 3.584206192391375e-08 3.466323038239819e-08 3.3498777071466e-08 3.23503339633926e-08 3.1218781642758454e-08 3.01044823883537e-08 2.9007311246574864e-08 2.7926717212263183e-08 2.686170531170869e-08 2.581078149683963e-08 2.4771810072919492e-08 2.3741712559957116e-08 2.2716157396117006e-08 2.1688889865697514e-08 2.0650645729650536e-08 1.9587266147182348e-08 1.8475710241309962e-08 1.7275339213630662e-08 1.5904201113118463e-08 1.4154023080519129e-08 1.1148474502838512e-08 5.794146393061571e-10 1.2617825127468703e-09 1.4453423985931466e-09 2.2408136579784594e-08 0.00013954403486649846 0.29117665482239263 0.00012605009639544816 0.9999959008337077 0.006404388736632347 0.00031336127255948107 0.00030417273268959136 0.00030161776438949973 0.0002986304493527415 0.0002952744549274846 0.00029162827020032283 0.0002877559580914392 0.00028371063093389384 0.00027953432129856453 0.0002752598239139434 0.0002709119427986909 0.0002665092775062504 0.0002620652763658406 0.00025758983156409093 0.000253089517191501 0.0002485682592974837 0.00024402804769981922 0.00023946882754444706 0.00023488829246256485 0.00023028180661760882 0.00022564187053303097 0.0002209571323718058 0.00021621060860097226 0.00021137749438699953 0.00020642093412494557 0.00020128469553904488 0.00019588034283227814 0.00019005988919905 0.00018355381652235313 0.0001757974075504717 0.00016527171525695936 0.00014465679754235774 1.078285804386372e-05 1.893779679233859e-05 2.0492241963507156e-05 2.130678224773575e-05 0.00031857623014976485 0.29094185605389167 0.00012580465152963472 0.9999959007772038 0.9999676706406032 0.9999240480595728 0.9998559943297864 0.9997681153948105 0.9996614448431921 0.9995388288477512 0.9994028643220466 0.9992559912663624 0.9991002937892431 0.9989374788282386 0.9987689059499856 0.9985956244352103 0.9984184277622115 0.9982379048061003 0.9980544997951797 0.9978684903413136 0.9976800791090477 0.9974893475913006 0.9972963120942292 0.9971008768055208 0.9969028431156276 0.9967018893635567 0.9964975193394005 0.9962889821030726 0.996075174978194 0.9958544479103187 0.9956242691376633 0.9953806499510042 0.9951168764136558 0.9948206857270274 0.9944662482494753 0.9939810030053235 0.9920664043721983 0.12882022165753057 0.16354598941411008 0.16668014727659847 0.1681732488346322 0.16900602432530046 0.16996807069350853 0.00012549225898432628 0.9999959006806879 0.9999764863210663 0.9999610077801921 0.9999374736496962 0.9999104146847745 0.9998808464938429 0.999850769794779 0.9998215363087555 0.999794193168539 0.9997693707004504 0.9997473637807205 0.9997281992555404 0.9997117108801248 0.9996975977660221 0.9996854657280032 0.9996748502057239 0.9996652173262518 0.9996559455985767 0.9996462851193936 0.9996352895737213 0.9996217146895308 0.9996038693374744 0.9995794030711715 0.9995450009672805 0.999495949344829 0.9994255019134479 0.9993239904904141 0.999177500192695 0.9989659050085362 0.998659828532536 0.9982154539994568 0.9975638490391004 0.9965769556893994 0.9940421891710449 0.12241206443712166 0.1580201600326918 0.1551837373974436 0.14838313573155754 0.13760469793044416 0.11303638706115829 0.00012490597272844285 0.9999959005148658 0.9999826329225271 0.9999713727606615 0.9999593281343555 0.9999460649056263 0.9999326976911842 0.9999199459973531 0.9999083882831424 0.999898318423638 0.9998898226268632 0.9998828324068856 0.9998771880072652 0.9998726855829047 0.999869110535997 0.9998662552537297 0.9998639281768165 0.9998619529440318 0.9998601632471594 0.999858391571434 0.9998564521338238 0.9998541138820314 0.999851056190249 0.9998467916637483 0.999840526525791 0.9998309036245648 0.999815515805388 0.9997899954818277 0.9997462931036012 0.9996694601019971 0.9995316790443861 0.999281258686366 0.9988219904931284 0.9979670960786251 0.9956375111566126 0.28098490571415297 0.15523294791155345 0.14911149386733105 0.13845929539654228 0.12262356596401346 0.09030101215143568 0.0001239540103088494 0.9999959002771918 0.9999860081655316 0.9999777247545383 0.9999695785533916 0.999961582908777 0.9999539613464963 0.9999470519630503 0.9999410488389696 0.9999360194004164 0.9999319260834376 0.9999286681165638 0.9999261162279796 0.9999241362653263 0.9999226031062035 0.9999214063423376 0.9999204513202509 0.9999196566974774 0.9999189506454159 0.9999182657828914 0.9999175326150834 0.9999166713481822 0.9999155797563015 0.9999141126388246 0.9999120441877535 0.9999089908549065 0.9999042435125152 0.9998963839413475 0.9998823861830364 0.9998554940273455 0.9998002575168593 0.9996811611575269 0.999417416147522 0.9988257271064113 0.9970381884186542 0.4986685050237006 0.19613536648925284 0.14748938637244177 0.13499360888010245 0.11659189556698236 0.08230204901925442 0.00012280359630164985 0.9999958999478104 0.9999883675002845 0.9999819557982981 0.999976048219568 0.9999705724975854 0.999965636690605 0.9999613380878429 0.9999577239402969 0.9999547752569071 0.9999524275566839 0.9999505927321304 0.9999491770633033 0.999948092312377 0.9999472609334039 0.9999466175115624 0.9999461077717323 0.9999456864057283 0.999945314349849 0.999944955793877 0.9999445748831173 0.9999441317068237 0.9999435772447405 0.9999428456652673 0.9999418413158505 0.9999404143982159 0.9999383079353222 0.9999350302709231 0.9999295171145255 0.9999191848823541 0.9998972294836076 0.9998450120525766 0.9997115019302604 0.9993596988209411 0.9981749660352227 0.6963099392501475 0.3375292093067498 0.180554689160254 0.1385506707152589 0.1169467334658042 0.08229971828414377 0.00012158871475803885 0.9999958994989566 0.9999901266960538 0.9999851567282698 0.9999807138127372 0.9999767666130567 0.9999733400094648 0.9999704517356381 0.9999680851973283 0.9999661936580791 0.9999647116597555 0.9999635678863714 0.9999626939913462 0.9999620294102852 0.9999615230239316 0.9999611329055329 0.9999608249657457 0.9999605712007938 0.9999603477958028 0.999960133196761 0.9999599060963341 0.9999596432223673 0.9999593165229548 0.9999588893887451 0.9999583107272941 0.9999575049501042 0.9999563525612187 0.9999546466610425 0.9999519788618761 0.9999473948983312 0.9999382625017649 0.9999164619606844 0.9998559664819568 0.9996745688973826 0.9989961412429953 0.840320089137357 0.5355178757109145 0.29157923552994386 0.1743221324862812 0.12583963259916214 0.08570798341515917 0.00012043732978793333 0.9999958988758181 0.9999915462822968 0.9999877549723898 0.9999844255359402 0.9999815429966536 0.999979107169188 0.999977102007089 0.999975491322653 0.9999742240795665 0.9999732434545585 0.9999724938127891 0.9999719251932597 0.9999714951114208 0.9999711687445967 0.9999709180599949 0.9999707206307872 0.9999705582352829 0.9999704155224867 0.9999702787283804 0.999970134394534 0.9999699