# vtk DataFile Version 3.0
vtk output
ASCII
DATASET RECTILINEAR_GRID
DIMENSIONS 41 41 1
X_COORDINATES 41 double
0 1 2 3 4 5 6 7 8 9 10 11 12 13 14 15 16 17 18 19 20 21 22 23 24 25 26 27 28 29 30 31 32 33 34 35 36 37 38 39 40 
Y_COORDINATES 41 double
0 1 2 3 4 5 6 7 8 9 10 11 12 13 14 15 16 17 18 19 20 21 22 23 24 25 26 27 28 29 30 31 32 33 34 35 36 37 38 39 40 
Z_COORDINATES 1 double
0
POINT_DATA 1681
FIELD FieldData 1
Concentracao 1 1681 double
1.0 1.0 1.0 1.0 1.0000000000000002 1.0 0.9999999999999999 0.9999999999999998 0.9999999999999998 0.9999999999999991 0.9999999999999993 0.9999999999999993 0.999999999999998 0.9999999999999771 0.9999999999995733 0.9999999999941974 0.9999999999412341 0.9999999995335543 0.9999999969792578 0.9999999835372602 0.9999999226496581 0.9999996805425578 0.999998821977235 0.9999960705215866 0.9999880135622429 0.9999662481691509 0.9999115442549581 0.9997826391015953 0.999495782339896 0.9988886667926088 0.9976579323537346 0.9952505286401988 0.9906710103303454 0.9821284313144218 0.9663643606728676 0.937347345317929 0.883760436859444 0.7847064319595116 0.6059523553866081 0.31685291034551427 6.754036205252963e-06 1.0 1.0 1.0000000000000004 0.9999999999999999 0.9999999999999997 0.9999999999999996 0.9999999999999993 0.9999999999999987 0.9999999999999981 0.999999999999998 0.9999999999999969 0.9999999999999962 0.9999999999999949 0.9999999999999706 0.999999999999503 0.9999999999933329 0.999999999933082 0.9999999994730664 0.999999996612794 0.9999999816693909 0.9999999144445217 0.9999996489096252 0.9999987132933329 0.999995734032704 0.9999870657909865 0.9999638013348754 0.9999057249792385 0.9997698379783353 0.9994697069610899 0.9988395853091735 0.9975731111131735 0.9951181824722126 0.9904917125893805 0.9819401319545211 0.9662900862606769 0.9376661073968992 0.8849817359515431 0.7875222462410376 0.6106502152666657 0.3215725998341935 6.828525510750406e-06 1.0 1.0 1.0000000000000002 1.0000000000000002 1.0 0.9999999999999996 0.9999999999999996 0.9999999999999989 0.9999999999999988 0.9999999999999982 0.9999999999999978 0.9999999999999977 0.9999999999999963 0.9999999999999609 0.9999999999993082 0.9999999999908828 0.9999999999103176 0.9999999993072334 0.9999999956262728 0.9999999767292197 0.9999998931286068 0.9999995681989032 0.9999984412270956 0.9999949083892455 0.9999847900450213 0.9999580682384673 0.9998924645737163 0.999741641700049 0.9994146601457111 0.9987415783772494 0.9974166407773327 0.994903004421028 0.9902659704167261 0.9818625655686134 0.9667302005807623 0.9393364864261968 0.8890324907387258 0.7953340603057163 0.6225141529361573 0.33290263577357715 6.976361393216325e-06 1.0 1.0 0.9999999999999998 1.0 1.0000000000000002 0.9999999999999996 0.9999999999999996 0.999999999999999 0.9999999999999987 0.999999999999998 0.9999999999999974 0.9999999999999968 0.9999999999999948 0.9999999999999306 0.9999999999987731 0.9999999999844746 0.9999999998530562 0.9999999989044099 0.9999999933054756 0.9999999654450612 0.9999998457475077 0.9999993933065842 0.9999978657650146 0.9999932018529881 0.9999801902250838 0.9999467282573811 0.9998667938791006 0.9996881947244037 0.9993124975930678 0.9985635065203791 0.9971382696179563 0.9945280043912301 0.9898799590311597 0.98173058182792 0.96744919887356 0.9420330854281762 0.8955130681874587 0.8078069949897386 0.641584138088776 0.3515275293330703 7.198086898523544e-06 1.0000000000000002 0.9999999999999998 0.9999999999999997 0.9999999999999998 0.9999999999999999 0.9999999999999998 0.9999999999999992 0.9999999999999993 0.9999999999999986 0.9999999999999983 0.9999999999999974 0.9999999999999968 0.9999999999999902 0.9999999999998167 0.9999999999969813 0.9999999999646317 0.9999999996873015 0.9999999978052726 0.9999999872961067 0.9999999375682511 0.9999997335855167 0.9999989951591438 0.9999966019595484 0.999989576661233 0.9999707170855265 0.999924039877475 0.9998167869836906 0.9995865659417602 0.9991222226490455 0.9982369383424716 0.996630765569255 0.9938342018768263 0.9891078291820434 0.9812318180123305 0.9680221822177176 0.9451953657363538 0.903752153438831 0.8243300623196568 0.667898636568942 0.3784497378476798 7.4916288151457765e-06 1.0000000000000002 0.9999999999999996 0.9999999999999997 0.9999999999999996 0.9999999999999994 0.9999999999999997 0.9999999999999992 0.9999999999999991 0.9999999999999991 0.9999999999999983 0.9999999999999972 0.9999999999999959 0.9999999999999577 0.9999999999991513 0.9999999999880996 0.9999999998787819 0.999999999047256 0.9999999939523025 0.999999967919011 0.9999998540311922 0.999999418675414 0.9999979408170159 0.9999934281066882 0.9999809033946631 0.9999490365361272 0.9998741815484623 0.9997108800060944 0.9993782956329541 0.9987429852730155 0.9975992991922096 0.9956483376311966 0.9924710828043709 0.9874743437136889 0.9797465111214809 0.9676623579309876 0.9478511316064978 0.9126174408742587 0.8438893420000368 0.7010677047025328 0.4154005237023232 7.85176067774778e-06 1.0000000000000002 0.9999999999999996 0.9999999999999996 0.9999999999999996 0.9999999999999991 0.9999999999999992 0.999999999999999 0.9999999999999982 0.9999999999999983 0.9999999999999979 0.9999999999999968 0.9999999999999645 0.9999999999993304 0.9999999999906742 0.999999999904361 0.9999999992391325 0.9999999951028669 0.9999999736563528 0.9999998785280555 0.9999995102255399 0.9999982456005404 0.999994344926784 0.9999834249525973 0.9999554434260881 0.9998893638769619 0.9997447416097909 0.9994500535482318 0.998888919785688 0.9978872836139718 0.996206389559704 0.9935459552399412 0.9895557216066393 0.9838352998706511 0.9758613834561298 0.9646910755409015 0.9480710611423425 0.9200094040893749 0.8643964746663034 0.7407257330044621 0.46281074294403546 8.259942716085362e-06 1.0000000000000002 0.9999999999999994 0.9999999999999991 0.9999999999999988 0.9999999999999981 0.999999999999997 0.9999999999999946 0.999999999999988 0.9999999999999704 0.9999999999998845 0.9999999999992113 0.9999999999932034 0.9999999999446088 0.9999999996079985 0.9999999976164692 0.9999999874506493 0.9999999421107613 0.9999997632676975 0.9999991324677693 0.9999971235071122 0.9999912976704917 0.999975803707475 0.999937781363512 0.9998512396800313 0.9996677770401483 0.9993042886569693 0.9986294394066615 0.9974531371550608 0.9955258620053151 0.9925559730595876 0.9882512030533207 0.9823806203852763 0.9748337976335308 0.9656154823719525 0.9546421193866382 0.9410209065991713 0.9209520431813084 0.8815005447181525 0.7822134281929802 0.5286929720552365 8.700759978499753e-06 1.0000000000000002 0.9999999999842379 0.99999999994236 0.9999999998769868 0.9999999997841834 0.999999999645493 0.9999999994183474 0.9999999989197018 0.9999999978717418 0.9999999954989963 0.9999999896931742 0.9999999745996037 0.9999999339284682 0.9999998229953839 0.9999995224705237 0.999998724880162 0.9999966713227335 0.9999915771101174 0.9999794592893061 0.9999519061875559 0.9998921454368147 0.9997686565830337 0.9995257091639406 0.9990707921272294 0.9982601690425772 0.9968858334326642 0.9946697125755823 0.9912733712944001 0.9863323525295133 0.9795226829378552 0.9706595209075755 0.9598161135187802 0.9474302906750556 0.934341619251552 0.9216427742985701 0.9101728030466013 0.8988398645287042 0.8798950968319696 0.8198868296349459 0.5824449946578256 9.084135149251943e-06 0.9999999999952834 0.9999933826866998 0.9999870102439731 0.9999806646273262 0.999973554632731 0.9999651638520319 0.9999547823579249 0.9999376149687457 0.9999132888701461 0.9998786550534899 0.9998290284971059 0.9997575401604094 0.99965415778866 0.9995042621009117 0.999286622122625 0.9989705488687821 0.9985120056303219 0.9978483789152153 0.9968917937708449 0.9955208796761142 0.993571635611121 0.9908282584690999 0.9870160250243828 0.981799671707322 0.9747911522453382 0.965572087960803 0.9537354303820321 0.9389503640651953 0.9210489462065435 0.9001307897357778 0.8766735563365702 0.8516335852664101 0.8265151000019147 0.8033802871285809 0.7847992682890885 0.7734358092974964 0.7721975437853771 0.7775007085597521 0.783360547220498 0.6941366649381824 9.395426691832977e-06 0.9999996182237176 0.01018571443640659 0.006768387776494825 0.006734085767032025 0.006513986808261238 0.006386210946760655 0.006230502958508697 0.006054588822861058 0.005859411635924858 0.005650983245853044 0.0054331535258325915 0.005209754723630929 0.004983123276052531 0.004755073226884446 0.004526692298255364 0.004299181750188872 0.004073128576411936 0.0038490623683531838 0.003627477002678618 0.00340863969949711 0.0031928647207098114 0.0029807016223031154 0.002772572551915257 0.002568706785576588 0.0023701255933383622 0.0021772643018599745 0.001991471462643113 0.001813537239184863 0.0016450071350842688 0.0014874128894435596 0.0013424140791989901 0.0012117932314639277 0.001097508353385871 0.0010015588069418578 0.0009263092069370102 0.000872568390394856 0.0008494746356419089 0.0008160737922248085 0.0010421385262476643 0.6898575982186489 9.56153751411832e-06 0.9999992618392389 0.00018742145048455147 2.1791030541553314e-05 2.1335450640828945e-05 2.0880040079766034e-05 2.0284282761901415e-05 1.947092650210649e-05 1.849939834970837e-05 1.7416368102826924e-05 1.6274080556831246e-05 1.5111509191310913e-05 1.395659217218804e-05 1.282852942555695e-05 1.173988146355918e-05 1.0698510260380938e-05 9.70970746765019e-06 8.777212878608034e-06 7.901129617075754e-06 7.082507535462393e-06 6.320540384593317e-06 5.6146189173862905e-06 4.964147481391479e-06 4.367378608785996e-06 3.822178920190438e-06 3.3278691876279352e-06 2.882281252372932e-06 2.4837237215722245e-06 2.1299156616701717e-06 1.8193314277807436e-06 1.5496295299695357e-06 1.3185964609830713e-06 1.1239417966435032e-06 9.633171636316495e-07 8.344688661136628e-07 7.353717431332757e-07 6.633656803164797e-07 6.182710509962945e-07 5.782652941640983e-07 2.049738039460691e-05 0.6851915099310705 9.711666324103358e-06 0.9999989044282946 0.00016701187613866783 5.4214948102328915e-08 4.378690239152243e-08 4.398999822076737e-08 4.288246649573039e-08 4.0710812749645254e-08 3.7983212131564246e-08 3.49110418364009e-08 3.1707523876043354e-08 2.8522549186823673e-08 2.545058126977285e-08 2.255154280373052e-08 1.9856842896923528e-08 1.7383194266373148e-08 1.5133341767756963e-08 1.3105274060657077e-08 1.12877241052788e-08 9.670647558967771e-09 8.239161874899388e-09 6.980469545365869e-09 5.881232204790212e-09 4.926149980147996e-09 4.101397986550578e-09 3.3948511041666726e-09 2.793961306286277e-09 2.2867752627969407e-09 1.8622553957422846e-09 1.5105309219762725e-09 1.222156980058776e-09 9.883904494099196e-10 8.014390282407264e-10 6.542951893680166e-10 5.407189752856047e-10 4.553960906686742e-10 3.926874794832458e-10 3.4901722372151336e-10 6.937181936096887e-10 1.955553243392938e-05 0.6804917736597134 9.859554317662441e-06 0.9999985471576244 0.000560278140833085 2.429814411649369e-07 1.3277233512441225e-08 1.2827061303396327e-08 1.2284677408336786e-08 1.1597983447193321e-08 1.0764969441509401e-08 9.793696873342319e-09 8.705838669334504e-09 7.536772311781544e-09 6.3328602757320185e-09 5.146478008151984e-09 4.029895505522864e-09 3.0290066352781023e-09 2.177559983554896e-09 1.4927223722237878e-09 9.73464721818453e-10 6.030848066434265e-10 3.5475676061368924e-10 1.982368458425348e-10 1.0542271285589315e-10 5.357178240036142e-11 2.6232234449457523e-11 1.258645980813415e-11 6.102385900162483e-12 3.1324935265499456e-12 1.7860444053124114e-12 1.1508717405412765e-12 8.17248565084488e-13 6.137757775435967e-13 4.943837511559724e-13 5.297496343668898e-12 2.4140721662340703e-11 5.823136929155021e-11 9.91036137310673e-11 1.3782804140811546e-10 2.2923780711802132e-09 5.980914082094399e-05 0.6757440192015746 1.0004683718362377e-05 0.999998192232079 0.00420083065458495 0.00016681363099666006 0.0001620271805425946 0.00015945538908129767 0.00015598776123181254 0.00015148308232727043 0.00014581075706124915 0.00013886779198046568 0.00013059833806425682 0.00012100637809253993 0.00011015750570763013 9.817637945443588e-05 8.525887542868935e-05 7.171762808798252e-05 5.804026936705919e-05 4.488818005105748e-05 3.2982480739288144e-05 2.2920095501491803e-05 1.5015523761191615e-05 9.253027718316714e-06 5.353916440805452e-06 2.90282284085307e-06 1.470386231190007e-06 6.923878171363579e-07 3.005670520647245e-07 1.1859252332215152e-07 4.149400075732911e-08 1.2299824046713972e-08 2.807484475313741e-09 3.788691612117981e-10 2.1137450280595613e-09 4.314317440520313e-07 1.8329985727757085e-06 3.958674868943077e-06 6.12191340524944e-06 7.909244219382532e-06 9.239726814868494e-06 0.00013511249314924754 0.6709285791435688 1.0146570659606352e-05 0.9999981922073703 0.9999696526933587 0.9999231642901624 0.9998444632765211 0.9997316254008958 0.9995768056010278 0.9993738355856429 0.9991167604561108 0.9988013051121953 0.9984252678347901 0.9979807232425544 0.9973579239031635 0.9958109049756271 0.9904467941710752 0.974253507506035 0.9362479044233212 0.865940752760712 0.760079984210048 0.6264655728828876 0.48162475730807547 0.3441468743391552 0.22816200157786493 0.14017457501540434 0.07965540372819281 0.0417128732105198 0.019986962253700113 0.008650222855441125 0.0033031139450726303 0.0010644990752172827 0.0002635095992512451 3.8529737035493505e-05 0.0001845257980028755 0.03195872749919689 0.11410578604202687 0.20931349648231612 0.28262203990256257 0.32977373584613817 0.35838595286516634 0.3753738816451355 0.3913242722004734 1.0159908805812014e-05 0.9999981921685852 0.9999779923071958 0.9999597647054694 0.9999266927263161 0.9998793271244809 0.9998133673024043 0.9997268428263802 0.999618513979826 0.9994892242287002 0.9993415402132634 0.9991700063505103 0.9988513146771206 0.9975539716324047 0.992128600025399 0.9751390835670787 0.9352806079198418 0.8622324101479617 0.7534935411710953 0.6178046333974995 0.47230080213673753 0.3355791464511487 0.2212894598559965 0.13530827992669192 0.07660225705684669 0.04002304456669419 0.01917593720426132 0.008325582054762014 0.00320575605280892 0.0010510632778199564 0.00026960414206496467 4.324734648061095e-05 3.314839242067905e-05 0.025723241117931075 0.10134965808835213 0.1906950155910939 0.2564977137868096 0.2924869776004378 0.30418396830617267 0.2968364090148899 0.250287003183368 1.0067855342122537e-05 0.9999981921089595 0.9999834168466897 0.9999692850742655 0.9999495028936928 0.9999204687359416 0.9998804244313786 0.9998278454699846 0.999762586167534 0.9996859360782494 0.9996002093194191 0.9994948327074379 0.9992009459072002 0.9976603293343279 0.9911025278417785 0.9711727849008318 0.9260869696805157 0.8463149321585746 0.7313620868272144 0.5921051968810341 0.4467293942443057 0.31338748946462763 0.20429307876131983 0.1237516777996684 0.06962404936124386 0.03631021370410598 0.017472061707900968 0.007686508319684826 0.003038765255572318 0.0010451708078563595 0.00029307076387534426 5.7531218279524855e-05 1.2751322471895846e-05 0.01459214934372628 0.08053978785855621 0.16675960525465558 0.23109959675629962 0.2633445224941301 0.2690420148785897 0.25077802858020826 0.1895003504424488 9.838132678711874e-06 0.9999981920338552 0.9999859631704522 0.9999743349678546 0.9999590500749156 0.9999377867557361 0.9999087270024091 0.9998710048531243 0.999824759796832 0.9997713769687524 0.999712311997211 0.9996247150547068 0.9992310343551156 0.9969799468675665 0.9879047790655228 0.9621658853209969 0.9076335864559673 0.8167179075788014 0.6925143843403636 0.5490610322941961 0.40554373610578853 0.2787997150346281 0.17852029425376356 0.10660012377964688 0.059418403984536954 0.03091320213884879 0.014980566142570576 0.0067247792059597754 0.002764435928689487 0.0010177128213115349 0.0003212854838559584 7.954642218149788e-05 1.4830945513589127e-05 0.006283155381032387 0.052629895926128906 0.13617348551878994 0.20424490273935497 0.2389371798190572 0.2442000466370606 0.2225520111242694 0.15998017221637087 9.509202792917506e-06 0.9999981919464728 0.9999872767551998 0.9999768001535434 0.9999636581306698 0.9999459172787 0.9999222604304986 0.9998921346687202 0.9998559869455657 0.9998152168604832 0.9997690096021912 0.9996566802521727 0.9989126700587364 0.9949061150731209 0.9805600571162657 0.9441745497460606 0.8743329592297275 0.7675374820956995 0.6322878418186111 0.48614676748742647 0.3482898792013968 0.23269923088973385 0.14530639000028156 0.08503712311214932 0.04676833030286475 0.024222896395181694 0.011825621083653938 0.005434154228870117 0.0023375466097138404 0.0009294159694135355 0.0003329721415375339 0.00010242224132098827 2.5432201853059024e-05 0.0025135217706280626 0.028880369013303618 0.0973332768938454 0.17223329762218229 0.21565603152442772 0.22604179470317423 0.20675240219638868 0.14659760422799412 9.1304570495339e-06 0.9999981918523981 0.9999876577252496 0.999977584510144 0.9999652111429564 0.999948968186567 0.9999279157345399 0.999901932041604 0.9998717695140512 0.999838550752267 0.9997884055062938 0.9994998746151212 0.9975322729534358 0.9888839869313474 0.963287651444632 0.9080353207354595 0.8154652249716404 0.6893732367452081 0.5447904891477319 0.40145196968312624 0.2760293681267819 0.17755339872081974 0.10724641346169025 0.06109367734074915 0.0329720750588122 0.01693400808563459 0.008308995389367501 0.0039054126296395215 0.0017585805392105805 0.0007551660373350164 0.00030536880807635445 0.00011341868384052182 3.733065272281265e-05 0.0009061877118737107 0.013637780123587927 0.059018958478676616 0.12751000402449097 0.18287095558844002 0.20675497135302565 0.1965072581711338 0.14221665559283594 8.755133982937946e-06 0.9999981917579951 0.9999871601494951 0.9999764660771272 0.9999636520132216 0.9999474691937188 0.9999275518010841 0.9999039370512163 0.9998775479720025 0.9998396559247705 0.9996376883639889 0.9981798554959492 0.9912962701035406 0.9696260598600972 0.9204253963795 0.8345434929402947 0.7135756052461258 0.5709542522945428 0.4262083424276792 0.29696945132223806 0.19367523927254218 0.1187185032406652 0.06874813824063733 0.03782546645484388 0.0198977217109818 0.010074360889739863 0.004943157869088919 0.0023658744495459226 0.0011101626511406126 0.0005117028434752069 0.00023080751896699 0.00010065336085183856 4.159026314385058e-05 0.00029008430578298424 0.005417013275249387 0.029809345117121397 0.07992088171116346 0.13722881602808837 0.17723389997540992 0.1838857768818285 0.140774363283949 8.418328505570366e-06 0.9999981916695229 0.9999849513436282 0.9999716149800366 0.9999543776325662 0.9999311286979371 0.9998965022509498 0.9998361302276192 0.9997062406869615 0.9992197677528252 0.9965514859961209 0.9867615101302941 0.9602447331149793 0.9052221840543793 0.8143975663426138 0.6910182775867777 0.5490585917377172 0.40741506647750386 0.28247757208040103 0.18351008928887722 0.11217402646037826 0.0648517113164624 0.035674634324698515 0.01879996698577752 0.009564379117434275 0.004738221406378688 0.0023077035714089613 0.001116112229865334 0.0005412113029072985 0.0002650696840195435 0.0001314763748077418 6.574288584267074e-05 3.273329142684276e-05 8.35754976557513e-05 0.0017263043849203867 0.012026814012499809 0.04042246481897057 0.08577110490512913 0.13356514335083391 0.1621042378900261 0.13974448078757834 8.142502262633784e-06 0.9999981914782258 0.9999042287843372 0.9995280155484001 0.998850549508544 0.9977264267741631 0.9958142736497908 0.9925173228323281 0.9867257747984167 0.9761253029695721 0.9517815954777398 0.9032212634528606 0.8249742352197545 0.7169152151348587 0.5875799274722174 0.45186946819711604 0.3254732136234757 0.21973027190854869 0.13939303354758983 0.0834061901392104 0.047292558441726536 0.025552148749819304 0.013239472089017016 0.006627733628226452 0.003233752248826758 0.0015537026875431929 0.0007439195868432583 0.0003597393197120181 0.00017815003018183578 9.149023717794037e-05 4.913468586023737e-05 2.7621001944487074e-05 1.6122559073783185e-05 2.1614790727639887e-05 0.00039994567217912076 0.003522289596562988 0.015033811851897162 0.04017731268335099 0.0795843467633943 0.1217494623440717 0.1324717959073923 7.92987563185882e-06 0.9999981758559598 0.9822634477499765 0.9632844779841568 0.9427904528414791 0.9187058791630132 0.8891134541491243 0.8517865946776956 0.8041364070741228 0.7427399216974881 0.6619365839173256 0.5615450498715355 0.4534168700036767 0.3466862531786607 0.2502168447660259 0.1702602014334878 0.10928043624903022 0.06627956721167252 0.038092465902918676 0.02082081466184178 0.010871276462886537 0.005451057662785503 0.002641471212268358 0.0012465278977486997 0.0005782552620301748 0.00026674276713950105 0.00012407051718830303 5.91553652940718e-05 2.9445247475722552e-05 1.558374819403182e-05 8.900193196203208e-06 5.523060024616935e-06 3.7080555224547177e-06 3.8052445962772906e-06 5.1638349572900455e-05 0.0005765860272319867 0.0031621858997856935 0.01110583549842012 0.027457805841944013 0.06465864711402863 0.09230285508559402 7.778440650879769e-06 0.9999976879421435 0.006717164830076186 0.004027721918420705 0.0036652374104730124 0.0032283451898856078 0.0028477451388705427 0.0024521573134006903 0.0020476406501321602 0.0016418041924521358 0.0012517423029208572 0.0009233507119700821 0.0006499437559790949 0.0004353641930237124 0.0002771848588950593 0.00016771951556328728 9.652713644107375e-05 5.293041313630293e-05 2.7719481539773496e-05 1.3907707749421714e-05 6.711039142787953e-06 3.129047234035468e-06 1.417997352876864e-06 6.290950166679426e-07 2.756772060840756e-07 1.2067206538393384e-07 5.348745230560485e-08 2.4404073734881687e-08 1.166987829046467e-08 5.9558871869692726e-09 3.291724184744885e-09 1.983210098665851e-09 1.2962804645896755e-09 1.3344905028860356e-09 2.2238889890425988e-08 2.9011572582565443e-07 1.8095029943703544e-06 7.161233791189864e-06 1.9069088778560824e-05 6.476534296419579e-05 0.09133375801616658 7.694876769240012e-06 0.9999972347085947 0.00016051786912716 8.606832021666238e-06 7.382895167389595e-06 6.294778344903544e-06 5.240951230959317e-06 4.197036431053415e-06 3.204747404917491e-06 2.31211036246831e-06 1.5755313971938048e-06 1.0530497039212473e-06 6.719913864503053e-07 4.0884794442057406e-07 2.3718417871279996e-07 1.3131300588087927e-07 6.946520091172018e-08 3.5184209714296674e-08 1.7101779346208924e-08 8.00156803764711e-09 3.6170650927980927e-09 1.5866536273557415e-09 6.792141993377043e-10 2.857288499721184e-10 1.1916399662659217e-10 4.981760272269347e-11 2.1158527970540652e-11 9.281144820597548e-12 4.28008882627627e-12 2.113094469073285e-12 1.1330129401214358e-12 6.638512644739748e-13 4.2286616423326605e-13 4.3371276734191515e-13 8.510677076562907e-12 1.2563891495228416e-10 8.655518209523528e-10 3.6944157457073475e-09 1.0593635080378894e-08 1.8019396700430354e-06 0.09029096219812478 7.61796399933633e-06 0.9999967801667405 0.00015096393022177832 2.228797999599238e-08 1.0047044723828838e-08 8.505746533913446e-09 6.845347239945813e-09 5.188423423299229e-09 3.686250793126059e-09 2.4390133263182e-09 1.5198107607607628e-09 9.398642487542995e-10 5.549123598301022e-10 3.1270822976033096e-10 1.6837566667764467e-10 8.67812802919027e-11 4.290676454703943e-11 2.0411366497887876e-11 9.382230442288091e-12 4.194401972436613e-12 1.843948214823377e-12 8.122133292310491e-13 3.6968844455304765e-13 1.815211522783263e-13 1.0014763827282783e-13 6.285635392064277e-14 4.375314552348778e-14 3.238917999524955e-14 2.457908751605488e-14 1.8632982024394032e-14 1.3837460028443204e-14 9.862560000082909e-15 6.532925264755733e-15 3.789113430142446e-15 4.342717765803208e-15 4.840461460588583e-14 3.606740684751459e-13 1.6282949775785057e-12 3.073567432973607e-11 1.7366252615804732e-06 0.08925292947785082 7.540928513908611e-06 0.9999963257646353 0.0004620454622216635 1.6101454603982292e-07 1.0646602957879563e-08 1.026553784124225e-08 9.85067168855867e-09 9.394422753922776e-09 8.910905592443486e-09 8.411852381014531e-09 7.906578176254047e-09 7.402203523731922e-09 6.903981259882097e-09 6.415876166965884e-09 5.940781086919765e-09 5.4807795229549176e-09 5.037356259454476e-09 4.611541105290062e-09 4.204034859331238e-09 3.815292755049585e-09 3.445572973433371e-09 3.094985041414238e-09 2.7635183010180805e-09 2.451051870814008e-09 2.157368225841687e-09 1.882140438934084e-09 1.6249362013845738e-09 1.3851968495747902e-09 1.1622145939178329e-09 9.551153896690223e-10 7.62806446502559e-10 5.839333836697926e-10 4.1679952618204006e-10 2.5930470148407893e-10 1.0939668592789957e-10 6.621077219196121e-13 4.576826280089447e-12 8.152142807348855e-12 2.002469488119875e-10 6.3006774690989106e-06 0.08821672335890282 7.46399983992494e-06 0.9999958739103342 0.003108645324285709 0.00014905783299816306 0.00014542068613625762 0.00014292761971898947 0.00013997662613352384 0.0001366513248073589 0.00013302974662195654 0.000129178001660841 0.0001251501565308722 0.00012098907571797574 0.000116728027259289 0.00011239226549604411 0.0001080006644524018 0.0001035670041547298 9.910119872073218e-05 9.460992696760451e-05 9.009736243743559e-05 8.556557783677524e-05 8.101464996262802e-05 7.644279451356956e-05 7.184640824116048e-05 6.721987657563324e-05 6.255548249425489e-05 5.7842903424971876e-05 5.306882870776429e-05 4.8215828953986134e-05 4.326038624198473e-05 3.816965899471169e-05 3.289469342492776e-05 2.735836767411153e-05 2.1430337247935832e-05 1.4872375645525176e-05 7.216048782100069e-06 6.197634511033417e-08 3.762969910408328e-07 6.160698312583222e-07 7.738113222093949e-07 1.4072509977077454e-05 0.08717885539978355 7.387397271721641e-06 0.9999958737085716 0.9999675497674874 0.9999239196249018 0.9998558544798476 0.999767960772335 0.9996612722536709 0.9995386355482357 0.9994026479775535 0.9992557499214673 0.9991000258043382 0.9989371827708151 0.9987685800975079 0.9985952635752242 0.9984180056472644 0.9982372954968359 0.9980531828366912 0.9978646043917331 0.997667769820737 0.9974521769579099 0.997192548356556 0.9968336980970705 0.9962650680571355 0.9952812723995663 0.9935256137879587 0.9904140463693941 0.9850369797741514 0.9760316969570496 0.9614056293958289 0.9382615686752063 0.9022980654034762 0.846778995858223 0.7601104360361682 0.6192733430977199 0.36854317386827434 0.004961350715245368 0.02525895566470066 0.03704293530182487 0.04353509250337785 0.04722785595928276 0.05150752732994351 7.290605263694235e-06 0.9999958733392362 0.9999763944278491 0.9999609047603402 0.9999373618345938 0.9999102952808842 0.9998807198043509 0.9998506360524753 0.9998213957475099 0.9997940460662079 0.9997692173500885 0.9997472044048245 0.9997280334536361 0.9997115339037103 0.9996973801415004 0.9996850627149315 0.9996736656860565 0.9996611356149057 0.9996423674467961 0.9996048368198572 0.9995197261674749 0.9993256861775432 0.9989018967778555 0.9980271713419901 0.9963228424210439 0.9931782871396834 0.9876581388563543 0.9783866226511995 0.9633926290547825 0.939869691010059 0.9037340616513458 0.8486879556810559 0.7639792392741931 0.6282990223894896 0.39015121290109295 0.002999318907198147 0.02287114195295144 0.03346579281042875 0.03779466621364822 0.038375739833146065 0.03356763413241551 7.112477217093429e-06 0.9999958726622318 0.9999825608840797 0.999971284132365 0.9999592306740418 0.9999459607159202 0.9999325879038057 0.9999198312720418 0.9999082690783712 0.9998981950656377 0.9998896953320504 0.9998827012080528 0.9998770519928621 0.9998725376251023 0.9998689090565616 0.9998658018984393 0.9998624249419666 0.9998566289969668 0.9998425584051346 0.9998054421606757 0.9997113263523201 0.9994889113480029 0.9990005887611537 0.9980005928753969 0.996080110424172 0.9926011608776945 0.9866219031349351 0.9768125836478517 0.9613473819631042 0.9377274469715224 0.9024194802982434 0.8500304534830315 0.7712965426786347 0.6477018974857486 0.43482206066036566 0.06837731445356131 0.01938229899775137 0.030152357126914206 0.03391699969366581 0.033122387759889724 0.026058513182987953 6.829297410936584e-06 0.9999958716355997 0.9999859465193176 0.9999776471807511 0.9999694914267696 0.9999614890808545 0.9999538622180838 0.999946948361444 0.9999409412743603 0.9999359081831077 0.9999318113626139 0.9999285497358992 0.9999259922285618 0.9999239930738193 0.99992236582866 0.9999207342744065 0.9999180328091327 0.9999111227191556 0.9998914802520282 0.9998382302925788 0.999705149715157 0.9993990863031905 0.9987479775924905 0.9974587559179124 0.9950686108952298 0.990896130609242 0.9839991604694646 0.9731413528974532 0.9567516831533222 0.9328271607713998 0.8986589869518044 0.8501218550813924 0.7799053420070445 0.6729773831589158 0.4934033429350536 0.1770735379198905 0.0334811554038659 0.026751572235174843 0.031017421173567174 0.030060187052514255 0.022793251312268045 6.495565995939368e-06 0.9999958701212015 0.9999883124731684 0.9999818862592202 0.9999759692990998 0.9999704868226269 0.9999655457343408 0.9999612427158457 0.9999576246709497 0.9999546723758143 0.9999523211157956 0.9999504819293076 0.9999490554074877 0.9999479202003446 0.9999468420628356 0.9999451395325487 0.9999406965244999 0.9999274722406246 0.9998900387122175 0.9997930533998538 0.999563350547134 0.9990631034687388 0.9980547493609986 0.9961621179836105 0.992836259343075 0.9873377155430668 0.9787438492177509 0.9659815471347862 0.9478611043075013 0.9230513914574596 0.8898741760579895 0.8456843388427524 0.7853423904211848 0.6975418588102587 0.5549507579057369 0.3024267249658304 0.10130352886438537 0.0366448746538455 0.02923942606690652 0.02828011372021142 0.021702891977252208 6.152409329377621e-06 0.9999958678954166 0.9999900756995973 0.9999850931218024 0.999980641390229 0.999976687589231 0.9999732557114127 0.9999703629622227 0.9999679923743339 0.9999660967407367 0.9999646089422564 0.99996344898796 0.9999625055316956 0.9999615327072464 0.9999597907209747 0.9999550133031032 0.9999408531113662 0.9999013648306114 0.9998005284214599 0.999564736483632 0.9990571672065802 0.9980454887596407 0.9961685517073802 0.9929123142886567 0.9876088430962244 0.9794706667065877 0.9676655978756663 0.9514192738348946 0.9301070397036197 0.9032638493681029 0.8703965271327819 0.830414094355644 0.7803292367431157 0.712407661098255 0.6071814927080523 0.42189358767002905 0.21489964720277566 0.0875060839732656 0.040683874936127185 0.02876583110046368 0.021276691444215987 5.835148323101152e-06 0.9999958626946098 0.9999