# vtk DataFile Version 3.0
vtk output
ASCII
DATASET RECTILINEAR_GRID
DIMENSIONS 41 41 1
X_COORDINATES 41 double
0 1 2 3 4 5 6 7 8 9 10 11 12 13 14 15 16 17 18 19 20 21 22 23 24 25 26 27 28 29 30 31 32 33 34 35 36 37 38 39 40 
Y_COORDINATES 41 double
0 1 2 3 4 5 6 7 8 9 10 11 12 13 14 15 16 17 18 19 20 21 22 23 24 25 26 27 28 29 30 31 32 33 34 35 36 37 38 39 40 
Z_COORDINATES 1 double
0
POINT_DATA 1681
FIELD FieldData 1
Concentracao 1 1681 double
0.0 1.1337719985114973e-57 1.7641612153490962e-51 1.8262867565639528e-45 1.0093489340699259e-39 2.4408327135658984e-34 1.4279795400119885e-33 5.008099463078589e-33 1.3325379277958133e-32 2.949304419080678e-32 5.710513074919716e-32 9.97287118984666e-32 1.6026033989939428e-31 2.4915719418980445e-31 6.739882659754981e-31 1.335281421292629e-29 7.572192262472901e-28 7.736863321459366e-26 1.0320844640423146e-23 1.1655986126007427e-21 8.288363348473821e-20 3.321803824842666e-18 7.537205063866003e-17 1.0210344962876753e-15 1.0363908310478212e-14 8.03282239319759e-14 3.5278277071339257e-13 1.1719998743172884e-12 3.4233611593174464e-12 9.188402620904012e-12 2.2923687039098785e-11 5.298904214826361e-11 1.1351697189997178e-10 2.2569566339042673e-10 4.1863886103894785e-10 7.318907341502019e-10 1.2231184095983124e-09 1.9517198239396003e-09 2.8363090379011346e-09 2.996936011003293e-09 3.399439642393654e-10 1.2111887867558708e-57 1.41721613191137e-51 2.2052032833475855e-45 2.2828602719916978e-39 1.2616871769363414e-33 3.051043304336842e-28 1.7849758529945255e-27 6.26012908119033e-27 1.665673670529694e-26 3.686633433862237e-26 7.13814705416272e-26 1.2466098766419096e-25 2.0032558513458274e-25 3.1144674189444975e-25 8.424860064576386e-25 1.6691031118972076e-23 9.46524784774184e-22 9.671086888687529e-20 1.2901066121373573e-17 1.456999431349541e-15 1.0360462473955625e-13 4.1522580420058644e-12 9.421513808461706e-11 1.2762941320420524e-09 1.2954895752006075e-08 1.004103602431938e-07 4.4097881558700687e-07 1.4650010148964849e-06 4.279204836401135e-06 1.1485512421177733e-05 2.865463172256052e-05 6.623635533610286e-05 0.00014189632760427075 0.0002821198037435048 0.0005232989949375458 0.0009148641495784865 0.0015288992254410513 0.0024396517045587227 0.0035453891336854563 0.0037461730023719436 0.0004249302939831474 2.0748030117469097e-51 1.952219143634084e-45 1.8507776787928722e-39 1.5502116155185555e-33 8.388506650098218e-28 2.18195574547173e-22 9.060162086245612e-22 2.4408302141450027e-21 5.24469625500613e-21 9.71012424231169e-21 1.6132671624631374e-20 2.459868737343858e-20 3.478155532693278e-20 4.5588719426485996e-20 5.514566635480609e-20 6.140808558042998e-20 6.523175949167495e-20 2.589034533537986e-19 3.1056510726689106e-17 4.007236166156469e-15 3.122399801928386e-13 1.3419272054225417e-11 3.211217891751614e-10 4.426645512877495e-09 3.4149405207515454e-07 2.0307181715212605e-06 5.235935551299149e-06 1.0664960965195532e-05 2.03387720487935e-05 3.9780380363102026e-05 8.059134298295158e-05 0.0001619353082458136 0.0003133098740683132 0.0005750343759593199 0.0010025009826483422 0.0016769550444216336 0.0027611104457136095 0.004454566327417497 0.006628034105612414 0.007170485959069392 0.0008501088129775686 1.9958195423786532e-45 1.8416825746834872e-39 1.400606014136696e-33 1.0099973951797786e-27 5.423217388361932e-22 1.5641833261983437e-16 4.3378169802334335e-16 8.631498226496811e-16 1.4526195587445125e-15 2.200660150388287e-15 3.091073115604838e-15 4.084315230620875e-15 5.103139326091083e-15 5.963597511146758e-15 6.439036146689971e-15 6.073653736907028e-15 5.263252154119525e-15 4.270084826750636e-15 3.567907786755086e-15 1.3090079191212613e-14 9.04999344385805e-13 4.3835726996478236e-11 1.201433128694129e-09 1.896558189832276e-08 1.5095434696535797e-05 3.466783853240309e-05 5.9945349832017714e-05 8.731072703850953e-05 0.00012473761934860868 0.0001820741772004047 0.00027748531434672595 0.0004360365998089264 0.0006897453223958747 0.00106629089869255 0.001596779204248309 0.002423591500622659 0.0037474582866796457 0.006061467133092203 0.009312843834013663 0.010301597122303812 0.0012799082850465432 9.847940171841401e-40 9.305839101524478e-34 6.861605851054629e-28 4.877666308255919e-22 2.846886123022892e-16 1.0240370957733247e-10 1.7053212790292642e-10 2.3850952249918645e-10 3.0620204579278313e-10 3.7283715195778875e-10 4.375373966572456e-10 4.987576685361348e-10 5.538263215947008e-10 5.955191052989259e-10 6.159430198084464e-10 5.090174609516206e-10 3.0140748421686563e-10 1.9176146277914204e-10 1.2444566843797712e-10 8.544108045656254e-11 6.546416170584591e-11 2.3071944063905078e-10 6.2949794005755104e-09 2.261989850291957e-07 0.0002035396347490434 0.00021154836668053185 0.00025372676395058494 0.00031667449681939804 0.0004074756359104038 0.0005371673992481049 0.0007190919977269387 0.0009766146062098206 0.0013332122314297654 0.001803254720766523 0.002304691022091298 0.0028760432691990836 0.004358158214461193 0.007339168671934875 0.01176174195605132 0.013211891147929622 0.001722324698693844 2.083955028184436e-34 2.0528912090814746e-28 1.6059891906209978e-22 1.2471464708268128e-16 8.805081621975396e-11 4.9507535237004076e-05 3.795882034279246e-05 3.6510870422448786e-05 3.4870855752405376e-05 3.3385802147024286e-05 3.229045153973602e-05 3.168770273877781e-05 3.2412661812102754e-05 3.216905644434757e-05 6.006218014454072e-05 1.9546252220736e-09 1.1911458408682973e-09 6.956526219884794e-10 4.496161584224036e-10 3.07992298711083e-10 2.3997241816340647e-10 1.1796409063093701e-09 4.5661555729220567e-08 1.6140769926565936e-06 0.0012575011965754981 3.837996298784053e-05 4.150997346731611e-06 4.584639624974162e-06 7.2579864225340135e-06 9.250089539095384e-06 1.109892231523978e-05 1.2937171624834024e-05 1.5254457566091856e-05 1.7097556190470422e-05 3.426738554957952e-05 0.0034806264067588208 0.005029382489506521 0.008869459646804257 0.014356175811120366 0.01600816762466622 0.0021884025678908002 1.2013803182564737e-33 1.0715427179803988e-27 6.001337250367172e-22 3.105012992797447e-16 1.2820645213074407e-10 2.7176221926282203e-05 5.749965931129074e-08 3.7219127193731716e-08 3.432669736561554e-08 3.14004339717079e-08 2.9034455635506106e-08 2.7528227391656073e-08 2.7429504623745846e-08 2.915184176282343e-08 5.42972300777098e-06 2.092463419048004e-09 1.4174649876357405e-09 1.004403868929986e-09 7.173288257724857e-10 5.30218436577366e-10 5.132328967049557e-10 7.225304597415181e-09 3.3362219756095055e-07 1.6872816707083917e-05 0.0026080775055299923 2.6205817777677495e-05 1.0574591179223143e-08 5.898078507762975e-10 1.2165570140647766e-09 1.8418448221944087e-09 2.469372863445267e-09 3.1361824838430663e-09 3.947147047111995e-09 5.165105131885216e-09 4.401510467841241e-06 0.004708259776386652 0.006546534132663818 0.011029698514644403 0.017475582960391468 0.018771256609074964 0.002692927521794305 4.066953264927155e-33 3.406948891381857e-27 1.4845750554939975e-21 5.745334589259164e-16 1.7044282969818038e-10 2.6924834542510013e-05 2.032415311354409e-08 2.595926672226608e-11 1.6400452477133793e-11 1.4368060515964085e-11 1.2659353892896226e-11 1.1424479559794324e-11 1.0933922419200354e-11 7.509328455909736e-10 5.3852099526038805e-06 2.263028860819882e-09 1.5883166514510366e-09 1.1953967118395956e-09 9.168079040770404e-10 7.303784329528715e-10 1.6365921892750875e-09 5.0605177792845704e-08 1.966138779683944e-06 8.16154519193225e-05 0.004263184759683979 2.698965893185591e-05 9.841547926088702e-09 1.898088643048505e-12 1.1608303341462198e-13 1.987158066734032e-13 2.921126522427035e-13 3.9714344616775985e-13 5.363814703669829e-13 2.4471347833191514e-10 4.36606394535517e-06 0.006654690033909522 0.008964455877115514 0.014211857605290736 0.021221196822450702 0.021477656595843112 0.00325213309309819 1.045747308847442e-32 8.390497476618123e-27 2.994845898425383e-21 9.237114757926138e-16 2.1386713189714627e-10 2.647076791678424e-05 1.9493461164163346e-08 7.154255420667773e-12 6.893059351474987e-15 4.276390767747819e-15 3.557310378659662e-15 3.0101302436241223e-15 5.0194476426255835e-14 7.134069170572006e-10 5.385682577072494e-06 2.4610916137612107e-09 1.7469311517706951e-09 1.376656687704717e-09 1.1632005216854385e-09 1.5472870612763609e-09 1.3817357057009743e-08 3.358736887832065e-07 8.681335524563237e-06 0.00023229148627736625 0.006366231757515391 2.713833063507162e-05 9.572636754274404e-09 1.8005310734272037e-12 2.400599008529987e-16 1.547454358567014e-17 2.4208929715356772e-17 3.46653257393922e-17 7.118362151447153e-15 2.2514817884195767e-10 4.324921086594814e-06 0.00944732178525545 0.012334373338677328 0.018357313805143743 0.02551148154290547 0.02404073880872371 0.0038829750209933224 2.255648200809182e-32 1.753249310537156e-26 5.306047720293586e-21 1.3587176647432163e-15 2.5668784442468356e-10 2.5295646171566735e-05 1.783492451743415e-08 6.237418890873364e-12 1.4613635229190268e-15 1.197257578322631e-18 7.277696661723667e-19 2.4290632579010454e-18 4.342919576558848e-14 6.809112371391233e-10 5.386212596353247e-06 5.570744492049884e-09 5.347714733104867e-09 6.5345430232192e-09 1.0819593132286872e-08 2.937632894374216e-08 1.7066438578442638e-07 1.9313342592200345e-06 2.9506374645745845e-05 0.0005106578144408463 0.008780387174768015 2.763143431742853e-05 9.3632309480475e-09 1.7434956257530249e-12 2.250302432912415e-16 2.3353422498941383e-20 1.5850165678637368e-21 1.4369098323115284e-19 6.135995200473152e-15 2.0576739269364323e-10 4.264997665079148e-06 0.01321819417860839 0.01670552534625779 0.023327394399078914 0.030096714095378774 0.026361357232325317 0.004600801879510085 4.3022952862479184e-32 3.263109312407203e-26 8.582271091528456e-21 1.8776179810686986e-15 2.984285288759819e-10 2.40837550144107e-05 1.6035159527515684e-08 5.27951095751681e-12 1.152011361370429e-15 1.896130791640634e-19 2.0913296551476624e-22 1.5848443579788252e-18 3.884276030335913e-14 6.42490113634691e-10 5.386690522330019e-06 1.7994740298322266e-07 2.01462723223974e-07 2.5510193365204927e-07 3.755129203665263e-07 6.909763349413259e-07 1.8901933476222082e-06 9.465442727038039e-06 8.130464173143876e-05 0.0009401671241756293 0.011316015218906026 2.8213866195903265e-05 9.245099158458835e-09 1.6954499542072579e-12 2.1716278952970852e-16 2.149480628943033e-20 5.690162576118752e-24 1.1671599452409154e-19 5.263422524526505e-15 1.8617432755324733e-10 4.180501717468618e-06 0.018058564344165997 0.02204808598350753 0.02889067497529527 0.034692728738902605 0.028392051538541303 0.005416464020594661 7.496804906317782e-32 5.576471286349393e-26 1.2980219482615644e-20 2.4773419345763227e-15 3.3889947423062957e-10 2.293803311031844e-05 1.442142616755645e-08 4.424196314162445e-12 8.878525791516082e-16 1.232809894879052e-18 7.038095763103307e-19 1.7231408113674285e-18 3.382124426187274e-14 5.972167163127021e-10 5.38710619194766e-06 4.868701865041506e-06 5.229301337616291e-06 5.961142336369361e-06 7.304399497970839e-06 9.930211450010228e-06 1.639703743588012e-05 4.078868422364038e-05 0.00019044051916094324 0.0014960583776993147 0.013665983847809912 2.8979101411605165e-05 9.294150117593351e-09 1.6788249319568563e-12 2.121705245276542e-16 1.358221969502048e-19 1.0014601136293121e-19 1.8167299728350415e-19 4.453935265490211e-15 1.6640403122546226e-10 4.06377627247256e-06 0.024019792503349506 0.028250531043463287 0.034741173062927184 0.03905092921785388 0.03018052241056705 0.006331752960167221 2.517541115304756e-30 2.0259760911481472e-24 1.881508067073943e-20 3.1582316810188274e-15 3.7891159723013385e-10 2.2609828996709407e-05 1.3397502502232819e-08 3.864816094101865e-12 4.007622687881749e-14 2.9858069904473386e-14 2.1303007562700766e-14 1.4333301047994795e-14 3.742533970387214e-14 5.430367965186896e-10 5.386776851750462e-06 7.666185408670863e-05 7.89218748650454e-05 8.215008654160024e-05 8.726503889898835e-05 9.595581707939439e-05 0.00011366032640735802 0.00016545870840008488 0.0004074697747425399 0.002100922645653695 0.015355711930315064 3.044697010133383e-05 9.67513808636363e-09 1.737664750289875e-12 6.477925505953844e-15 5.654107136158856e-15 5.0800615097911275e-15 4.542228036870302e-15 7.734318049623855e-15 1.4617525739150526e-10 3.902378463797934e-06 0.031149993481142703 0.03514191713483614 0.04056117167113389 0.0430371101357093 0.03190504100220518 0.007332481009462298 4.5572804800076115e-25 4.1147569092254585e-19 8.083182335962023e-17 1.7182260406471426e-14 7.712264839143785e-09 2.1049102698139575e-05 1.3475430638718367e-08 7.395371325974151e-10 6.569309910647999e-10 5.616950525692359e-10 4.586996912521087e-10 3.556431367885896e-10 2.596451852472709e-10 6.514041146010005e-10 5.377318682272795e-06 0.0007943591070970072 0.0007834790772454193 0.0007543006359239568 0.0007181927652428354 0.0006837043848288789 0.000658463238067414 0.0006755086751494539 0.0009155750991019528 0.0026821876162687443 0.016125352233817197 3.1232089022221617e-05 1.056789251198698e-08 2.3778601510087426e-10 2.2208535639407591e-10 2.081782689343692e-10 1.9439134685958495e-10 1.8077510387764035e-10 1.67316848034377e-10 2.7832962199898423e-10 3.667916922076314e-06 0.039613890590520395 0.04259722137469331 0.04614203615033933 0.04669757840490944 0.033871376009341404 0.008381306372763549 1.5277837809568395e-21 1.3875677624877194e-15 8.481560383801796e-14 4.524042847498835e-12 7.416947400109191e-09 4.5327963855609375e-05 5.652726357462902e-06 5.6315851470543575e-06 5.630988086808004e-06 5.614313188476634e-06 5.523318033091206e-06 5.258457117051312e-06 4.73650912957009e-06 3.947910529906216e-06 8.218214203180357e-06 0.005900039673306459 0.005532489328486828 0.0048684679472684525 0.004252990682303664 0.0036933913000130754 0.0031834305812892903 0.002734878015294665 0.0025303683045308206 0.0036405627017928265 0.014310840465308486 5.0659055389377164e-05 4.9496102118139045e-06 4.88319566386907e-06 4.821843004608595e-06 4.750741935794047e-06 4.669218455786242e-06 4.576255643212431e-06 4.4702804121702425e-06 4.34843662844139e-06 7.437027023069694e-06 0.0501028705389775 0.050820148747211004 0.05151648569099626 0.05025707884405264 0.036392090473144255 0.00941735424260824 3.613296182113788e-19 3.3150302394187114e-13 7.839443401400888e-12 1.3484800297543353e-10 7.176309225961268e-09 8.5461830420664e-09 8.851565424014169e-09 8.404948000254898e-07 8.001985079578695e-05 0.0010143957771859662 0.004902488900510461 0.013530479541792925 0.025756810889032342 0.03732832329397112 0.04309168495113281 0.03266552604418251 0.022256480801225092 0.017682655940411216 0.014866520064686806 0.012748796937715015 0.010885564981005878 0.009150493521562657 0.007533322142255587 0.007122066005817925 0.013306309754366731 0.01452169626097028 0.01637788358565409 0.018669265400287804 0.02131969685763919 0.024308093412623303 0.027622082335843824 0.031253779785091584 0.035201381799753025 0.0394890931366853 0.04421972569096453 0.05032662004848661 0.05514979571746127 0.055994621387051725 0.05380241040806174 0.03970535867803174 0.010369096105343345 1.2844595219706795e-17 1.1983137643637476e-11 1.4421994759290354e-10 9.633224376663521e-10 6.66443586220761e-09 8.152888020445654e-09 8.471007643203603e-09 1.691121780588832e-06 0.00013097923175973432 0.0014420588685920502 0.006285034962526142 0.01603873197033267 0.02868255593534525 0.03951892211450764 0.04407318226085662 0.04089456736213147 0.03452391716625605 0.029868670191902147 0.02693050965633983 0.024746029507889625 0.02268599440406292 0.0204081208238104 0.017956097947877583 0.015531566436280592 0.016423206542802535 0.017390959893192188 0.019253456302814696 0.021657705977687156 0.024460507939716627 0.02760741298573641 0.031061851324536958 0.03478888863709894 0.03874917998696016 0.04289715417442692 0.04722790574619282 0.05189779112658701 0.05633053592041154 0.05852884387109023 0.05702587427440855 0.043515693812667136 0.011179413533694975 5.906034482630874e-16 5.485557474672171e-10 2.760489651371989e-09 9.812454960755475e-09 2.439581734503814e-08 4.932276119989612e-08 1.5914077362607162e-07 2.1205483397197997e-05 0.0005581630453178336 0.0036312046863147085 0.011548606351870331 0.02369277592526116 0.03599470311096524 0.043817273012964716 0.045063466907111625 0.04106879729495213 0.03547517432116648 0.031226165110741562 0.028942167746403843 0.028025780986443764 0.02770605147055711 0.027365343980132083 0.02663101980643842 0.0255324664745291 0.025123309906251313 0.025736159636473164 0.02702293720081655 0.02904833189463086 0.03146653305143717 0.03413652890253247 0.03696714347448194 0.0398886528779176 0.0428378179502743 0.04576906032213064 0.04869972133643946 0.05179092997473273 0.05526413950317264 0.05830106798193803 0.05867572141271573 0.04791819374742059 0.01181163324753648 4.024241826751178e-11 4.30219965041102e-05 0.00022181024842574175 0.00044235768741042507 0.000719279332915565 0.001137390506556502 0.001889705730044781 0.0035493913520956975 0.008529789382181492 0.01752334826013851 0.028779877873155828 0.038434346171146855 0.0431407225941242 0.04214404870488674 0.037187284541026384 0.030814288728591578 0.02498711338772343 0.020718417279905012 0.018223618198332004 0.01725451195761258 0.017406016891300034 0.018262899642326365 0.019429724615868914 0.02060266451618941 0.021696052656455037 0.022793054302745794 0.023852447182886708 0.024907965708997507 0.025928094686837367 0.026915386731943967 0.02786867273117972 0.028800400409640613 0.029759708899105907 0.030891303876515896 0.032493413956506075 0.03514544691732608 0.0389649538273267 0.04589833960746518 0.05096175201314189 0.04891591561760121 0.012291161064530579 8.12645042795849e-11 7.11694611934726e-05 0.00020266603839294987 0.00016933860182604394 0.00020227331427640266 0.00021408338059628382 0.00022397993956024375 0.00022951157203306922 0.00022913707698095197 0.0002197336902770596 0.00019923457415119603 0.00016897335552114922 0.00013378084472258296 9.970694138264738e-05 7.127950625679994e-05 5.023995073479629e-05 3.673341767971731e-05 3.035395296406889e-05 3.005234414849078e-05 3.4510689361242616e-05 4.264599702354365e-05 5.3685855552504715e-05 6.675827310974088e-05 8.03679955162338e-05 9.146836963130697e-05 9.864555423679215e-05 0.00010043908622538217 9.86426509324493e-05 9.438447060616952e-05 8.892161304488825e-05 8.289692189058222e-05 7.675025542428507e-05 7.087455711111935e-05 6.585279927704995e-05 6.235732733842866e-05 6.184067116513094e-05 6.079132693913029e-05 7.884124314362357e-05 0.05132144351486343 0.049749855175024824 0.01269535583287101 9.721763948652655e-11 6.887208408011779e-05 5.3221885990874515e-05 5.849631281917717e-06 6.000218173964733e-06 6.078379510636364e-06 6.078954874998352e-06 6.006370625346683e-06 5.880256136498586e-06 5.731732702479823e-06 5.5825573558368695e-06 5.449008975932282e-06 5.3408862591301485e-06 5.261151520672324e-06 5.206960436088843e-06 5.172406561998408e-06 5.152648282328752e-06 5.144946881255418e-06 5.1469884117770295e-06 5.156642243460993e-06 5.172436268794793e-06 5.193409145372557e-06 5.217901726429026e-06 5.241506092585664e-06 5.253341164242914e-06 5.244430682627467e-06 5.200027563271724e-06 5.093701504248875e-06 4.8360659286167495e-06 4.168967369416329e-06 2.507469968485536e-06 2.5492275692113123e-07 9.474970032640886e-07 1.4698452556186045e-06 1.8751029676085169e-06 2.1720166657575764e-06 2.3779033246626008e-06 4.8701685380572946e-06 0.05172911512773925 0.04862373582294387 0.013065512003987756 1.0044823273164638e-10 6.33896175471045e-05 6.434578475116637e-05 6.622002929565387e-05 6.916788659156955e-05 7.332796125864776e-05 7.896355466808064e-05 8.641513829387329e-05 9.611705335243555e-05 0.0001085797133333779 0.00012434517663544305 0.00014390253216566197 0.00016760727380050862 0.00019571854395982656 0.0002286768052838734 0.00026770952323210183 0.0003151856253690272 0.0003754856206612906 0.00045573617020942066 0.0005672866731794636 0.0007280816286467399 0.0009665230548729032 0.001328936804611025 0.0018960600759118994 0.0028226350440833854 0.0044375384764412835 0.007457882359616434 0.013472519013838107 0.025317587219020596 0.04421651062289118 0.05127828570697858 0.0050234714728693555 0.026169594450808478 0.04034771713572314 0.047491002174787744 0.04989901553622187 0.05012748351064163 0.04962110527464383 0.04892015897036971 0.04517426388540062 0.013485336243111606 8.427332783093632e-11 4.4990285897812106e-05 5.7667183962672185e-05 6.154233563292452e-05 6.563409758271555e-05 7.046119998281744e-05 7.654810778077671e-05 8.432717463454164e-05 9.429268565542265e-05 0.00010700151374516447 0.00012305101099631033 0.00014300476596700487 0.0001675343890305141 0.00019832836883326873 0.00025223364762972435 0.0003253633904840021 0.00040975644456792864 0.000507878341956433 0.0006272508617131326 0.0007833896719427372 0.0009979614675785693 0.0013024372689471205 0.0017402006889220395 0.0023807279628831365 0.003362144955453926 0.004973506665265928 0.007980643422927848 0.013936550570720567 0.02574182806485541 0.04450727694904556 0.05144239251812943 0.0045111903194614555 0.025299093113090785 0.03912783235914181 0.04602049029293507 0.04810400461692959 0.04781296493254192 0.046501820257427766 0.04405084408588182 0.03736396774427062 0.014002357361417844 6.679707468190797e-11 3.569949552341334e-05 4.968589696415979e-05 5.703272820228485e-05 6.245933349633696e-05 6.818384777815832e-05 7.491469178337934e-05 8.325152429418914e-05 9.378735738729848e-05 0.00010720344158278874 0.00012429601997833632 0.00014600594950438023 0.000174331927067773 0.00022373359957090128 0.0005104663723633437 0.0007320769702918357 0.0009392607808646967 0.001139473887691339 0.0013702625849735717 0.0016539463597817063 0.002014569758480603 0.002477792411089431 0.0030696948229785343 0.003805385032770184 0.004738316900392044 0.006198415075468355 0.00885368976146485 0.01464343285775942 0.026412337859427582 0.04496808846207461 0.051636403411037174 0.0033872768609211246 0.02371360152084266 0.03739655615777451 0.04442763577496691 0.046547335189938255 0.046084293415095554 0.044241655784942865 0.040727946234273886 0.03337562693310198 0.014703302023780996 5.2863684729467246e-11 2.9315897675660916e-05 4.415834352647332e-05 5.302833390023435e-05 5.9920797708146245e-05 6.663090125135305e-05 7.418969939322812e-05 8.332525513090687e-05 9.478157037653169e-05 0.00010945158336395589 0.00012854043131484575 0.00015390364415944212 0.00019196386692439004 0.0003208664469929319 0.001865207736476473 0.0016503501835303206 0.0017607501705881885 0.001967769474597943 0.002257063840182115 0.0026264782884531765 0.003084970545259213 0.0036389259401246217 0.0042999315437386625 0.005071509744783605 0.0058596973656958205 0.006771633298082774 0.009362535725146483 0.015246897972545456 0.027355282021652157 0.0456411041806392 0.05187353657760023 0.005423030574971002 0.021504737240532704 0.035143982929743404 0.0426201028325629 0.045095993416057766 0.04471264263231461 0.042614772079271356 0.03867651409290233 0.03122581110598088 0.01562785246010143 4.376028557621789e-11 2.526000682740392e-05 4.0113410620155886e-05 5.012062899590416e-05 5.818231319932466e-05 6.596515999252114e-05 7.452686697789238e-05 8.473971231932405e-05 9.753177359002846e-05 0.00011412468750125628 0.00013642985615663255 0.0001683258465228722 0.00022933193148504236 0.0005706038986249555 0.006096593067142412 4.838511646882382e-05 3.9504366952577235e-06 3.826706026707274e-06 3.77997214063789e-06 5.557436832128304e-06 7.297880912963432e-06 9.01700965311493e-06 1.1219786962775589e-05 1.3041654323667769e-05 2.9689276415906602e-05 0.007737797901813067 0.010169619075413645 0.0166958340180806 0.029033282827774634 0.04677168588757238 0.05221917116855172 0.009710625275471655 0.01877221940894447 0.03234377092459558 0.040489631955966776 0.04359838580802588 0.04355044497190424 0.04150928060265639 0.037500838798281866 0.030331121889437936 0.016766216022148964 3.813092201145267e-11 2.2600496230367765e-05 3.742727392461856e-05 4.828355615579934e-05 5.7445431325515516e-05 6.637382515500827e-05 7.615406834235871e-05 8.778174007146909e-05 0.00010242430245148207 0.00012177818556486324 0.0001489212623823388 0.0001920017624144645 0.0002981108612942991 0.0011855482874083393 0.010941503197705114 3.046621342159956e-05 1.2175941560320916e-08 3.2952205658425e-10 3.2393144354009215e-10 6.629359317348904e-10 1.061665449272381e-09 1.5282404170261605e-09 2.148248634205385e-09 3.171176377868391e-09 4.065949791714084e-06 0.009822060322621097 0.012524187910264961 0.01932405712829189 0.03188869762092146 0.04839298078337269 0.05273165482543682 0.015389023003035514 0.016175119055051607 0.028988220817397936 0.037924057676859746 0.04191348705667111 0.04245339701224886 0.04072486236831971 0.036921906471123866 0.030178890611572272 0.018100668608860882 3.480218073262954e-11 2.0955473013146428e-05 3.588303913534143e-05 4.757535582735926e-05 5.787453326739501e-05 6.811065542144423e-05 7.939517679394149e-05 9.287274031291568e-05 0.00011002151261075039 0.0001332157879418884 0.0001674693868977576 0.0002302436605494415 0.0004402017380745685 0.00215803544720503 0.015313197774210262 3.0028788010262194e-05 1.0412719094045143e-08 2.03854934417283e-12 1.839153006024293e-14 4.584485502906168e-14 8.588508501601725e-14 1.395646426415265e-13 2.2403113156950576e-13 1.9978392498182425e-10 3.991737473728717e-06 0.013340137311845643 0.016514546572424637 0.02366219013880068 0.035799027035190154 0.05040300249785346 0.05345760493918169 0.021881969293694556 0.015220135529831674 0.025139499144192532 0.03482646264882868 0.03990504969589697 0.041274062109378395 0.040088464399509915 0.036695405411700174 0.030489046220606705 0.01959880897140117 3.308702667419618e-11 2.0110780565331638e-05 3.5414719550700636e-05 4.809004721427077e-05 5.9709888843304196e-05 7.153116946942323e-05 8.472786913354946e-05 0.00010064044726399114 0.00012116648120331102 0.0001496917151741101 0.00019477069293944072 0.0002931540192785218 0.0006965956428132704 0.00346613933556406 0.019508857422777297 2.888961866000882e-05 9.438293163428495e-09 1.7950708697484171e-12 2.442139851154853e-16 2.4206458071656653e-18 4.958805761820364e-18 8.857327022470916e-18 5.037567773877542e-15 1.758955163150097e-10 3.878218050360259e-06 0.018703193205059504 0.02231654307266819 0.02949642874993115 0.040514595223129 0.05257735570911008 0.05442074675209289 0.028755321975682997 0.01653196196310837 0.021679215592598947 0.030904714522613848 0.03723853359746089 0.03979975752360902 0.03943406709412625 0.036644008953740176 0.031066416481719025 0.02121969246534691 3.2703121670666977e-11 1.9995126907231025e-05 3.6073990928192134e-05 5.00483847140859e-05 6.333929011588232e-05 7.719667151310365e-05 9.291107943375807e-05 0.00011210343856484643 0.00013729723669619494 0.00017364555038177257 0.0002367054203491221 0.0003982321829136362 0.0010897221332144638 0.005035556117085811 0.02301964376310956 2.8388018820263385e-05 8.812678763133188e-09 1.6437502227343827e-12 2.216678823410807e-16 2.3802324920543162e-20 2.3037564063060284e-22 8.118757267452223e-20 3.955495329229372e-15 1.4954881283545565e-10 3.691014402958965e-06 0.02624364678400134 0.030000040212716246 0.03652304180746759 0.045607955816309144 0.05475077944431413 0.055602239250336735 0.035608590548296105 0.0202038707118639 0.0197260616166995 0.026831999718271392 0.0338109294609311 0.03771485221972488 0.03846554028920306 0.03650538574753202 0.03169418642204854 0.02291581462940839 3.3660669092447503e-11 2.0660622258267925e-05 3.809202641473037e-05 5.390736564862274e-05 6.94784083645446e-05 8.613039266905137e-05 0.00010537790838578923 0.00012933365138200956 0.00016172909881383333 0.00021136137149498034 0.0003069388174581941 0.0005716134000924443 0.0016281849121094968 0.0066863990732591244 0.025926572513040928 2.8076578350733732e-05 8.378135367307054e-09 1.5266905382333519e-12 2.0270181163161222e-16 2.1412992872468496e-20 4.3836442273866946e-24 5.557341400350615e-20 2.915618360263797e-15 1.2031426137087854e-10 3.382469699836386e-06 0.035703013592292034 0.03903361857565095 0.04407388472700265 0.050574063883626154 0.05673770623038467 0.056863524757553977 0.04200868768657188 0.025840191782451713 0.020111897535655204 0.023572257575938046 0.03000253570781344 0.03499253769201952 0.03706394657001968 0.03617701957002048 0.03228502550197188 0.02463601354697417 3.635838147411127e-11 2.237509412777597e-05 4.211543875183928e-05 6.079130143242322e-05 7.987372421766667e-05 0.00010096010006788082 0.0001261334529197022 0.00015871556126595586 0.0002052555510040813 0.0002818033233156123 0.00043712051205609174 0.0008510371809734024 0.0022952194545823785 0.008211643897633573 0.028049930626718136 2.804041331692463e-05 8.149679051619662e-09 1.4508361266363237e-12 1.8831475886771134e-16 1.277196684531591e-19 9.33143284553973e-20 1.1371947352942916e-19 1.9163675900631358e-15 8.759733026515702e-11 2.8678657738780364e-06 0.04509416752520068 0.0473826518601507 0.050453463702910616 0.05431439394399591 0.05794115433427325 0.0577131105146388 0.047355803627275685 0.03255546692475197 0.02308949174426639 0.022113171434329077 0.02651854772315848 0.03181174326983117 0.03515788279465497 0.03556392505417352 0.032771540286962685 0.026329006954156648 4.2643690992362576e-11 2.6290328692015785e-05 5.0720832108564706e-05 7.515161672727254e-05 0.00010160564542859368 0.0001326540713336447 0.0001720988635629237 0.000226350616335143 0.00030765973842047646 0.0004428742199142712 0.0007014557716018673 0.0013011902082160909 0.003065227278325115 0.009400562854577767 0.029079092690430953 2.8750438950276105e-05 8.235722344160927e-09 1.443769832254925e-12 5.926529422790557e-15 5.135754213892868e-15 4.56761085618263e-15 4.044430517530288e-15 4.528982724591146e-15 4.989997861579342e-11 1.969600578725143e-06 0.04690282202585715 0.048349991465672155 0.05050684104287666 0.053287900669716455 0.0560341789579476 0.056500487877380344 0.05040478754153431 0.03880737678373805 0.02800732355167513 0.023039640353759674 0.024242782103647113 0.028629371571700344 0.03279173263876547 0.034581028189013326 0.03308581399888122 0.027945998462973326 6.300729160403735e-11 3.889324369601315e-05 7.80314838063026e-05 0.00012072282926069092 0.000171042913185526 0.00023449200112768631 0.0003189673878728057 0.0004363805782635642 0.0