# vtk DataFile Version 3.0
vtk output
ASCII
DATASET RECTILINEAR_GRID
DIMENSIONS 41 41 1
X_COORDINATES 41 double
0 1 2 3 4 5 6 7 8 9 10 11 12 13 14 15 16 17 18 19 20 21 22 23 24 25 26 27 28 29 30 31 32 33 34 35 36 37 38 39 40 
Y_COORDINATES 41 double
0 1 2 3 4 5 6 7 8 9 10 11 12 13 14 15 16 17 18 19 20 21 22 23 24 25 26 27 28 29 30 31 32 33 34 35 36 37 38 39 40 
Z_COORDINATES 1 double
0
POINT_DATA 1681
FIELD FieldData 1
Concentracao 1 1681 double
0.0 1.1334211980213779e-57 1.7636153662132608e-51 1.8257216853817924e-45 1.0090366317553679e-39 2.440077497520378e-34 1.4275710188306534e-33 5.0067274169453785e-33 1.3321828039432736e-32 2.948533717079316e-32 5.709028489046545e-32 9.969375134212887e-32 1.5984098826703394e-31 2.3741262194315833e-31 3.284622322917202e-31 4.256501563466262e-31 5.264018784974976e-31 1.627684251672339e-30 4.27029567179988e-28 1.4042542446312754e-25 2.4916650393895275e-23 2.104384925591616e-21 8.637385920035509e-20 1.8668355157460646e-18 2.96465031013455e-16 5.138364024150027e-15 1.9277941740523042e-14 4.259400241556577e-14 7.943667534184043e-14 1.5495167793347522e-13 3.5291161717918713e-13 8.65103339114245e-13 2.128267425903197e-12 5.0708996480494055e-12 1.1626327861186372e-11 2.6093781323272144e-11 5.926630213684962e-11 1.408991407221156e-10 3.4713934080057157e-10 7.189155037024825e-10 1.1396915720400664e-10 1.2108140326771778e-57 1.4167776309479205e-51 2.204520971381942e-45 2.282153932448926e-39 1.2612967987308416e-33 3.050099283533529e-28 1.7844652011093357e-27 6.258414022221839e-27 1.6652297653780182e-26 3.6856700556001e-26 7.136291320336669e-26 1.2461728693448746e-25 1.998013951747807e-25 2.9676601484156983e-25 4.1057811882688255e-25 5.320631210834391e-25 6.580028708711795e-25 2.0346069422746757e-24 5.337873860045522e-22 1.755319210043339e-19 3.114583790901949e-17 2.6304832228247448e-15 1.079674097030432e-13 2.3335462444190497e-12 3.7058158523184974e-10 6.422960168551558e-09 2.4097446421491142e-08 5.324254561345963e-08 9.929592277614236e-08 1.9368975163739214e-07 4.411398743856011e-07 1.0813800334735418e-06 2.660336395878907e-06 6.338629604220332e-06 1.4532921452810825e-05 3.2617252747871504e-05 7.408293646854919e-05 0.00017612406484641336 0.00043392452314005523 0.0008986450965482118 0.0001424615600517317 2.0741610469958058e-51 1.9516151075865963e-45 1.8502050298554158e-39 1.5497319648875762e-33 8.385911165886791e-28 2.18128062840849e-22 9.057608626928412e-22 2.440172283162194e-21 5.243320662716155e-21 9.707627170306152e-21 1.6128586748951658e-20 2.4592537696442542e-20 3.477294743432723e-20 4.557751185017863e-20 5.513142813851971e-20 6.136898410213883e-20 6.356339074070729e-20 6.340536894626385e-20 6.377229105486847e-20 5.696958488776862e-19 1.0112585430728378e-16 9.451429613411397e-15 4.245840131655496e-13 1.001295836372e-11 6.594634091979233e-08 3.9967536994988495e-07 9.404565556961086e-07 1.6046219857171304e-06 2.3002811528852816e-06 3.10915810929604e-06 4.402732625600861e-06 6.677378993503512e-06 1.090288280238444e-05 1.88958783364819e-05 3.4347255850803503e-05 6.578732884468587e-05 0.00013863756623391438 0.0003256315142119009 0.0008223120768916565 0.00175293012218004 0.0002855131799277445 1.995202016279488e-45 1.8411127400973738e-39 1.4001726530179583e-33 1.0096848922751288e-27 5.421539393781172e-22 1.5636993536966897e-16 4.336624244159054e-16 8.62922391455725e-16 1.4522466916341377e-15 2.2001063672174186e-15 3.090307672702706e-15 4.083317210309212e-15 5.101904299321552e-15 5.962169370269816e-15 6.437457604006698e-15 6.072139800373711e-15 5.2619254797800694e-15 4.268686133391555e-15 3.501737035422688e-15 2.944845002904433e-15 2.9053186222694383e-15 3.9027985960383584e-14 2.0511079151200103e-12 8.10691129466566e-11 3.3026310148601124e-06 7.78273414151819e-06 1.3234932599454814e-05 1.83445566400191e-05 2.4069101587497714e-05 3.0789964250531e-05 3.9404363883147875e-05 5.051024826279738e-05 6.47133938323847e-05 8.168545738543267e-05 0.0001018139663963174 0.00013432384280385396 0.0002146821187127672 0.0004602117500170578 0.001183118371090449 0.0025859727947263756 0.00043064850214750923 9.844893126064534e-40 9.302959786968722e-34 6.859482805514695e-28 4.876157112678527e-22 2.8460052702383684e-16 1.0237202495518674e-10 1.7048753110484638e-10 2.3844882180395545e-10 3.0612601769255674e-10 3.7274656977764977e-10 4.3743298496551346e-10 4.986403316219537e-10 5.536965975247088e-10 5.953823354762127e-10 6.157769616737726e-10 5.088802290535162e-10 3.013262237894989e-10 1.9170976235641812e-10 1.244119555226569e-10 8.538742485540488e-11 6.227057848195953e-11 4.922890149522505e-11 5.842493903882414e-11 2.622778671647425e-09 4.497986987045703e-05 5.1501691967282695e-05 6.046638364524137e-05 7.351474476101847e-05 9.139693312193256e-05 0.00011493827670669951 0.00014431425247561164 0.00018032820549125476 0.0002221809858072754 0.00026739691013986434 0.0002874723447148944 0.0002971027813188634 0.00033001843422407424 0.000609985286119848 0.0015663710080097233 0.0034483638146856465 0.0005806196315685132 2.0833102344245952e-34 2.052256026652478e-28 1.6054922834336813e-22 1.2467605926971555e-16 8.802357252205464e-11 4.94922171760923e-05 3.795058276435705e-05 3.6502048063534554e-05 3.486281887477845e-05 3.337840095131302e-05 3.2283459554262106e-05 3.168091361236768e-05 3.2405304826932785e-05 3.2162871909399316e-05 6.003421845703918e-05 1.953814990488569e-09 1.1906722578056496e-09 6.953882055111716e-10 4.4945059200585227e-10 3.077479831260274e-10 2.244743523804422e-10 1.7689138132330022e-10 3.4974821224480584e-10 2.3361297289980974e-08 0.0002785139178885593 3.850861421943506e-05 4.1582237485456286e-06 4.590308593140862e-06 7.26911480179581e-06 9.268660573290271e-06 1.1128087846998094e-05 1.298183144989533e-05 1.5323132060940202e-05 1.7197074849090903e-05 3.450506218377855e-05 0.00034701255141250615 0.0004221542091850702 0.0007999067524762938 0.002034645118940334 0.0044121389161675025 0.0007392698628840925 1.201056299741548e-33 1.071256389487114e-27 5.999788266942776e-22 3.104260143450976e-16 1.2817980345007534e-10 2.7174765870762562e-05 6.868219622630579e-08 4.457451106690472e-08 4.120503862785835e-08 3.778194350941605e-08 3.501929462002528e-08 3.328322856272935e-08 3.324355539527316e-08 3.542252720588015e-08 5.4379941416547955e-06 2.091863156138976e-09 1.4169595835121442e-09 1.0040363535669894e-09 7.170608343747631e-10 5.289787518201789e-10 4.041022103110868e-10 3.393085697228994e-10 2.6919922234243498e-09 4.60986356279579e-07 0.0005775485453422292 2.6420038571773885e-05 1.4582465404827088e-08 7.894905436462879e-10 1.6469257463865489e-09 2.5277834750900523e-09 3.4395643802206208e-09 4.4382842038347764e-09 5.679809582682873e-09 7.578438416206838e-09 4.46162534447641e-06 0.00045139003216511787 0.0005650486984016954 0.001075984466075508 0.0026906794543436574 0.005544071958685974 0.0009118064011161796 4.065947936463039e-33 3.406114877108863e-27 1.4842259248906985e-21 5.744062052365811e-16 1.704085852262371e-10 2.6919878173873773e-05 2.4313738992286866e-08 3.7201901963937314e-11 2.362913567315551e-11 2.079718570765891e-11 1.8410740703699697e-11 1.6694230202071844e-11 1.6055562765777003e-11 9.280959748302864e-10 5.383833951148105e-06 2.262376408563663e-09 1.5877706287227245e-09 1.194943464201334e-09 9.161506339396823e-10 7.124309639226121e-10 5.660748253522442e-10 6.444790647068358e-10 2.1701465796922772e-08 3.180073353782669e-06 0.0009457243212027014 2.735495162955448e-05 1.3989645908974661e-08 3.620410524539419e-12 2.082657179032749e-13 3.6461178287985314e-13 5.49396929407354e-13 7.666296492473225e-13 1.0656389187817623e-12 3.8683639800048585e-10 4.446647167909155e-06 0.0006298278118937689 0.0008114437787318495 0.0015290161931993528 0.003613545582207265 0.0068973587850133505 0.0011040637211484341 1.0455032927005136e-32 8.388555977195995e-27 2.9941791954962578e-21 9.235163191006754e-16 2.1382514453704328e-10 2.6465985738977746e-05 2.3359225522203558e-08 1.0274005248815614e-11 1.1900009872673057e-14 7.44321377638897e-15 6.234864216601809e-15 5.313327998832556e-15 7.782936451833205e-14 8.855576779798981e-10 5.384409490561041e-06 2.4462337756603235e-09 1.7282698229512215e-09 1.3442886094097009e-09 1.070695877413923e-09 8.633273247987961e-10 7.317158110915586e-10 2.403137805402475e-09 1.2695809118763884e-07 1.0940735380064503e-05 0.0014417506565174007 2.769948638277262e-05 1.3985785652542456e-08 3.580361891967177e-12 6.313234273080289e-16 3.737342707999941e-17 6.03499268797425e-17 8.946796765488279e-17 1.6645429187117447e-14 3.6605529090581295e-10 4.4426596269578e-06 0.0009189002746074714 0.0012078750495051766 0.002224071422682467 0.004880353111495964 0.008483665304983321 0.001322306249548223 2.255142827841909e-32 1.752859258086246e-26 5.30490954225038e-21 1.3584397590269437e-15 2.56638756856346e-10 2.5291397512474064e-05 2.141236384008047e-08 8.989420711128099e-12 2.5278578092688514e-15 2.500182028195843e-18 1.536506315442473e-18 4.837360073585713e-18 6.7963938098546e-14 8.53099042604806e-10 5.385061686139935e-06 2.6561272363595998e-09 1.8774495902581995e-09 1.4973422377599463e-09 1.2461692018841849e-09 1.1122829583921714e-09 1.5879795103318558e-09 1.552384650336966e-08 5.364326367491828e-07 2.7521168104096567e-05 0.0020410810263011103 2.8439354148005423e-05 1.405399986734474e-08 3.601833846348998e-12 6.223049972798439e-16 8.444424558040652e-20 5.1696084010330134e-21 4.745524197977619e-19 1.4947360382915426e-14 3.458950560984726e-10 4.436445056502345e-06 0.0013776645297856386 0.0018247628748281404 0.0032330550629569867 0.006526352500949496 0.01028337739435265 0.0015724788181699523 4.301360291894877e-32 3.2624044135218093e-26 8.580480454843764e-21 1.8772435060070297e-15 2.983728195101877e-10 2.4079898582421424e-05 1.9288790565301346e-08 7.637863827942447e-12 2.003661318997425e-15 3.964259081745529e-19 5.375521606320831e-22 3.185874007244405e-18 6.214989067484805e-14 8.147162797696211e-10 5.385654267824701e-06 4.9177373810822806e-09 4.310363763115681e-09 4.491650127987678e-09 5.454232564793609e-09 8.196292879798648e-09 1.855377585574772e-08 1.0453439645708703e-07 1.753563435820975e-06 5.6082281076962455e-05 0.0027018213198531523 2.9304194522595147e-05 1.4238433646702573e-08 3.6305897192181986e-12 6.27202271690707e-16 8.213952042137936e-20 2.766389728996266e-23 4.038242386581805e-19 1.3423403371933622e-14 3.251479327468659e-10 4.426673249497965e-06 0.0020937629839593726 0.0027539484406975292 0.00462336854752082 0.008547179095677487 0.012248165888425703 0.0018592332725507878 7.495214476396001e-32 5.575294458279721e-26 1.2977570732905124e-20 2.47685820962365e-15 3.388376301438994e-10 2.293453417626524e-05 1.738181762483517e-08 6.425357125558941e-12 1.5535241665804344e-15 2.651862178387379e-18 1.6505637950326793e-18 3.810090283693374e-18 5.568244517484753e-14 7.694804254604659e-10 5.386221653161826e-06 1.2150981204731062e-07 1.2803039270200869e-07 1.424579697717655e-07 1.678582200036249e-07 2.1268015870776026e-07 3.0947759658443405e-07 6.963771866570796e-07 4.760357856330632e-06 9.589049253176101e-05 0.0033382854036544726 3.0361964706575118e-05 1.4644164591499582e-08 3.710909329255382e-12 6.369298447402878e-16 5.119960423107556e-19 3.886832915185998e-19 6.962918891392182e-19 1.1946253591314946e-14 3.0368746209591863e-10 4.411148120054978e-06 0.003201907677114981 0.004114894166629517 0.0064392399882219195 0.010877482118235684 0.014310428990246874 0.002184289527150417 2.5171236088564967e-30 2.025630433172437e-24 1.8811322678825276e-20 3.1576254549780377e-15 3.788433827958985e-10 2.260621651044499e-05 1.6180026715498162e-08 5.639291612658835e-12 6.449045424665044e-14 5.070104466120393e-14 3.882233085900012e-14 2.8460929403459385e-14 6.840169700504709e-14 7.153381328259803e-10 5.386736258278667e-06 3.6789290958321466e-06 3.735139262884727e-06 3.796012566195382e-06 3.8780732118214116e-06 3.99503035496875e-06 4.213971450062396e-06 5.056311219043138e-06 1.239989423702057e-05 0.0001402254327075217 0.0037992283837688145 3.210207178477495e-05 1.5506273979249123e-08 3.9371206427162895e-12 1.6584894980865083e-14 1.4843429988157605e-14 1.3800541950533812e-14 1.2795384001098029e-14 2.2313069912805886e-14 2.809605963516546e-10 4.385626576752707e-06 0.004936934075216506 0.006075267049653752 0.008686481496191473 0.013374787911304881 0.016392695448311026 0.002543780428166544 4.556737483590115e-25 4.1142665379538757e-19 8.082218381823737e-17 1.7180211222140393e-14 7.711470947348356e-09 2.10470197040993e-05 1.6321243469707138e-08 9.210532784312021e-10 8.369575054660006e-10 7.415141438457246e-10 6.369896011605569e-10 5.288110569481897e-10 4.2144483328939864e-10 9.660193366608225e-10 5.386559228506012e-06 7.49281684110623e-05 7.25564121008149e-05 6.781309533042843e-05 6.179386360846193e-05 5.515690984324892e-05 4.80494625530862e-05 4.142285129737927e-05 4.342085974344366e-05 0.00018241608925320552 0.003984352946969365 3.301893217926688e-05 1.711772673300933e-08 4.025731753454832e-10 3.8348091249468225e-10 3.683610163060202e-10 3.531670222130005e-10 3.379236628231968e-10 3.2258618348507173e-10 5.621828099623335e-10 4.339587081808891e-06 0.007838439120741123 0.008965321435084373 0.011366153448576086 0.015843755708872406 0.018418166865974632 0.0029252174641410467 1.5276218154469415e-21 1.3874206629420331e-15 8.480661254970024e-14 4.523563305157721e-12 7.416161577231936e-09 4.531046684880032e-05 5.655763114007299e-06 5.630144742032905e-06 5.630668028220689e-06 5.628397606390946e-06 5.606822573458078e-06 5.521004986030289e-06 5.299099697307599e-06 4.865232026349876e-06 9.51218863913382e-06 0.0011738509913176594 0.0010704271570996387 0.0008991188475194971 0.0007402733933971398 0.0005971083624783255 0.000468017726591433 0.00035101318946622695 0.00025809807632919146 0.0003004685413099297 0.00336238846291976 5.312975767109605e-05 5.2318725368015635e-06 5.196798374740504e-06 5.182739516194376e-06 5.166152657947167e-06 5.146689988382461e-06 5.123903621522269e-06 5.097100399487769e-06 5.065321204815745e-06 9.240725136311423e-06 0.014277670863466603 0.014255376542882694 0.014927880446385681 0.018261233502238166 0.02033282931375641 0.003306699186591961 3.612913316363192e-19 3.3146789875588e-13 7.838612810694159e-12 1.3483371598799879e-10 7.175548907683703e-09 8.544893822696707e-09 8.824872323160402e-09 4.437423022983313e-08 8.387124629905898e-06 0.0001729296277150716 0.001187540277785385 0.00440377009089484 0.01096598036527411 0.020565145783961947 0.03091260594901311 0.02538722699389408 0.014543287634814156 0.00933484845919124 0.006399429859122017 0.0045902774918108 0.0033460788209283285 0.0024186508508817054 0.0016694978283133338 0.0012380709307384995 0.0029762980490772714 0.0032607178650869294 0.003699342110388825 0.004255534031082804 0.004921222604396085 0.005703991124438944 0.006617099363013425 0.007679864522262115 0.008920577519309338 0.010388460610553103 0.012189506712183298 0.015048450692040886 0.017650161261938715 0.018492251839397175 0.020619575764978564 0.022111889333708546 0.0036611775318036617 1.284162120231977e-17 1.1980610998628031e-11 1.4419773557083878e-10 9.631979995698211e-10 6.663675638431273e-09 8.151553905356131e-09 8.409113011700869e-09 8.1393133092698e-08 1.4212608751353409e-05 0.0002557622803851849 0.0015859734460222227 0.005439874639793404 0.012710855799263364 0.022557235555940313 0.03229901843991798 0.03602143698856603 0.03131836236318296 0.024830287242166123 0.019440954507038602 0.015287792399585512 0.012049912674848548 0.009398519748113069 0.007214417255527853 0.005297760420251107 0.0049280857136622305 0.00477958659830077 0.005170634273532433 0.005753616277134424 0.0064837521664751875 0.007351342483191715 0.008362028992362942 0.009527527309851147 0.010863193591285548 0.012384603782927547 0.014136487161999627 0.016254743331257544 0.018734123198174447 0.020533930308234954 0.022410976571833687 0.023641489623046057 0.003965943549426265 2.1321061238731672e-16 1.9933919962185654e-10 1.0307252692668448e-09 3.706965257900255e-09 8.999244161442334e-09 1.2146272491638879e-08 1.8946496381433378e-08 1.3497861195354882e-06 7.458643502149275e-05 0.0007573716602484991 0.0033720756499714143 0.00921199464459834 0.018121133050336923 0.02802609809208731 0.03600541616722491 0.03988217059063785 0.03912873576751996 0.035591060764367514 0.031329829607776714 0.027311734334878626 0.02374186692614489 0.020550399485968398 0.017611739503093565 0.015006704679655088 0.013137113733356697 0.012367938715160407 0.012185755637463063 0.012626692151966448 0.013360379749404447 0.014293856158166219 0.015379639124700377 0.01658997345605791 0.01788682869421025 0.01920369981061633 0.020397634958996186 0.021347790585532635 0.022106156771471857 0.022824011449755943 0.023952622614404114 0.024883541443894343 0.00420553586291316 1.2836427728933471e-11 1.3721420404515834e-05 7.07249809605078e-05 0.00014100184219988955 0.00022911943771833875 0.000361889476180993 0.0005998729092139215 0.0011183684651106896 0.002895764356660416 0.006930785057126178 0.013778477180071516 0.02256109005384041 0.031075279920963504 0.03702246129963576 0.03937375238042036 0.03866496967257131 0.03614036200631947 0.03294204391530009 0.029830264377617526 0.027164233607774722 0.02501297878535602 0.023286188634695767 0.021840159191309622 0.02057989614679157 0.019592932685595962 0.018947066328287625 0.018697891550419447 0.01872135355923439 0.018939143625058674 0.0192759496774039 0.019698980369823507 0.02019154853368413 0.020744514860454037 0.02135297015289666 0.022014605766006928 0.022710279360776055 0.023393577363842812 0.023912081606136656 0.02451018729179643 0.025583859982943748 0.004388307764215635 4.6454919728729946e-11 4.636755296037191e-05 0.00020254995708489972 0.00016942940943415018 0.00020252955148111933 0.00021464595197806055 0.00022513339251947932 0.00023199933137619549 0.0002359629180336356 0.00023549080533747966 0.0002283052054044239 0.00021264625889187605 0.00018896863842282833 0.00016036818160072207 0.0001313318898752198 0.0001057478392935825 8.628101848692894e-05 7.435526953493872e-05 6.983591765530999e-05 7.159885235777093e-05 7.833662829704604e-05 8.886579629049715e-05 0.00010183593856181998 0.0001153719443277733 0.00012641798998220435 0.00013367869579491854 0.0001357403575210357 0.00013429932231394918 0.00013040200830351885 0.00012522699607526552 0.00011937123993028735 0.00011324726236531197 0.00010723090230513472 0.0001019400657458699 9.807443230498755e-05 9.741051122547022e-05 9.484959861386048e-05 0.000119496250871068 0.02496774035270435 0.026048163577873516 0.004543114233503386 5.967737828727391e-11 4.455766308524295e-05 5.3271958024232324e-05 6.019467665119735e-06 6.218323249704804e-06 6.332781941892504e-06 6.359686173970507e-06 6.306368143983622e-06 6.1919418402732606e-06 6.044880994876904e-06 5.883468747441446e-06 5.722893354377979e-06 5.576145920130058e-06 5.45290802183836e-06 5.357557591250357e-06 5.289090001500982e-06 5.245442678570683e-06 5.225284425382448e-06 5.225927471316491e-06 5.243754601013992e-06 5.275738396245357e-06 5.3196425851234115e-06 5.372324583858822e-06 5.4271115146634895e-06 5.469254058795023e-06 5.491275468198767e-06 5.486181677892002e-06 5.4587750260904055e-06 5.395076323616063e-06 5.179971135654704e-06 4.062265250914441e-06 6.550807327322994e-07 2.2064437772122906e-06 3.0178625937286877e-06 3.433387018007274e-06 3.655977492461367e-06 3.7782081741332708e-06 7.455952755560357e-06 0.025527312914852034 0.025859763206121038 0.004685516997181701 6.301653473156295e-11 4.075857910198443e-05 4.1068580596136103e-05 4.16756773525424e-05 4.2631914488345115e-05 4.398423817672082e-05 4.582086202600702e-05 4.825570629026782e-05 5.143231505334141e-05 5.551395743211404e-05 6.066097611946331e-05 6.699073773877855e-05 7.453582581446239e-05 8.323866158439212e-05 9.301831647668244e-05 0.00010391057634727913 0.00011608116863762322 0.00012989433643163673 0.00014584895769242275 0.0001646085966690666 0.00018711659021515903 0.00021484842333421768 0.0002503872520245555 0.0002987827753346886 0.00037116252731614395 0.0004960025569543603 0.0007570687193183307 0.0014565190611448835 0.0038223242257740654 0.012524391224523698 0.03387127674892266 0.011215857340002572 0.040939787173870444 0.04242240420765575 0.03714808981447284 0.0322790759539606 0.02884147781910777 0.026591362728942598 0.025254074175002986 0.024287612573758145 0.004847855303262273 5.3071299845256936e-11 2.8698490034143203e-05 3.647813350313015e-05 3.839812411881857e-05 4.010674428513822e-05 4.1905362236545175e-05 4.404373002484848e-05 4.669374940623404e-05 5.003289524772387e-05 5.424578362216374e-05 5.951121854523245e-05 6.596413208206968e-05 7.370747382271018e-05 8.287332407891041e-05 9.86945428823358e-05 0.00011941974608965051 0.0001416629412683397 0.00016488701780819598 0.00018932957068683429 0.0002165167027400109 0.00024814468338513386 0.00028651764160355725 0.0003340256436725463 0.00039470464111106984 0.0004779277411327859 0.0006092460002171711 0.0008763290684062583 0.0015807951188110763 0.00396902853843952 0.012700994034865852 0.03386322100375793 0.01021661408630197 0.040458656623501114 0.04230532712383713 0.037045140336558306 0.032022128776243795 0.028337216088067173 0.025698451996400806 0.02362858849643111 0.01980501032023196 0.005049061507476187 4.186858748887276e-11 2.2488865516612383e-05 3.0988329366348975e-05 3.506018690723269e-05 3.760670620662203e-05 3.9952540466955525e-05 4.246788691165521e-05 4.541687496752975e-05 4.902427907968463e-05 5.35211159340928e-05 5.914673952971176e-05 6.61350133084534e-05 7.485157993298872e-05 8.716157915238107e-05 0.0001789560691999559 0.00024780447491140676 0.000309347897771683 0.0003636530839098023 0.00042067281687700243 0.000483819103025784 0.0005556035014525132 0.0006374455124169142 0.00072864026704672 0.0008214504751190074 0.0009081117003787073 0.00100078530748256 0.0012068348438515654 0.0018624531775904836 0.004260095146502023 0.013033316552233977 0.03371676232354359 0.008060729963483115 0.039686354503736906 0.04256912512767219 0.037543116866848136 0.03240955887162698 0.028457867703137837 0.025444705813522577 0.022458985811252823 0.01771262631460559 0.0053242910827082475 3.2689480072374694e-11 1.8147353395179423e-05 2.70278939770974e-05 3.194885827408031e-05 3.5337882855677654e-05 3.823244788844647e-05 4.1178393023075074e-05 4.450331832457098e-05 4.849406955555683e-05 5.345260339355624e-05 5.973780660669467e-05 6.781166588046483e-05 7.878031625085963e-05 0.00010322657961240003 0.0006302544033016326 0.0005612841292889043 0.0005927352486245576 0.0006536621315556666 0.0007370821630114893 0.0008396208725064242 0.0009605841732852447 0.0010973457369721437 0.0012469861165535438 0.001403191854613168 0.0014929203502171877 0.0015442936053535665 0.0016111028674031605 0.0022299356601164252 0.0047173429342849925 0.01358056422190796 0.03353532193937486 0.008445777217597464 0.03840750150043716 0.04305329024247363 0.0385440865211281 0.03334941331183539 0.029142908562339913 0.02566801282605727 0.02209184710896341 0.016748803580461817 0.005691779084593772 2.6476525173878288e-11 1.52786756808363e-05 2.395911188949906e-05 2.943268772803969e-05 3.341483397566488e-05 3.6842515235208784e-05 4.025495504087634e-05 4.4038089946490964e-05 4.854328517650985e-05 5.4174316965724724e-05 6.148317469900858e-05 7.138940916961615e-05 8.666321491926224e-05 0.00014202197451676951 0.0020983847650997644 4.942227800532494e-05 3.989120050875043e-06 3.8642227255301735e-06 3.822810318982584e-06 5.630053538554218e-06 7.408713151081835e-06 9.176202813175926e-06 1.1448826095852609e-05 1.3347138335585457e-05 3.0446391754575292e-05 0.0017057865722466625 0.0018956868172933746 0.0026586972499388776 0.0053657773422511506 0.014429669583710964 0.033374910471989275 0.010816404722820205 0.036294553445830186 0.04350682404535335 0.039897606490794546 0.03475102763385806 0.030291641585638126 0.02642703337805684 0.022356805084090107 0.016634724801754822 0.006151383853619159 2.2405158891063535e-11 1.3273348842696025e-05 2.1681612635069368e-05 2.7469507582990254e-05 3.193616624605081e-05 3.586723733106651e-05 3.979104782202106e-05 4.412852757386479e-05 4.93048560166743e-05 5.585847241114572e-05 6.462814032309215e-05 7.726974545373751e-05 9.932532692247484e-05 0.0002326416194593643 0.0038179231167371763 3.176444592900652e-05 1.7755917123441645e-08 4.5473948600326416e-10 4.510854210226522e-10 9.349521665698333e-10 1.5180196294582977e-09 2.2174496040387353e-09 3.165698303495519e-09 4.772128303363524e-09 4.222252756693667e-06 0.002052682669457969 0.002311694063148486 0.003265795448814482 0.0063566897938400575 0.015593849718033001 0.03325964585739199 0.01446820194666687 0.03282162813803191 0.04358080519770804 0.04141354086086963 0.03649822154049189 0.03184842118840721 0.027640485947445358 0.023167062155242835 0.0170849320826036 0.006700569889074067 1.971870557003499e-11 1.1868879584668576e-05 2.0028023755569406e-05 2.6055354474245286e-05 3.0952937070412684e-05 3.539793688853721e-05 3.9899198071597784e-05 4.4913093905422326e-05 5.0949268551830096e-05 5.871678893885609e-05 6.943380876370292e-05 8.585102682006669e-05 0.00011939270927929523 0.000373680313444493 0.005430523853568903 3.1880622328479954e-05 1.5840927808174367e-08 4.161988374214271e-12 3.424769289327639e-14 8.653088099188095e-14 1.655932341817038e-13 2.751841444042808e-13 4.5443358053967815e-13 3.320075149601977e-10 4.199595555524541e-06 0.002672373831762826 0.0030525377865639326 0.004272002986425492 0.007786138016033019 0.017076023438572743 0.03316043412732409 0.018851551496334874 0.029154853425499387 0.04211702443285922 0.04283757742894813 0.03846068180736616 0.03372615679044134 0.02923781748445172 0.024412467152624552 0.01796493675787765 0.007331151347190308 1.7947535461534983e-11 1.0906040706054952e-05 1.891352105681664e-05 2.518648583084383e-05 3.053046384547814e-05 3.5543328325420035e-05 4.0724974669471236e-05 4.6572785410522725e-05 5.369487526225824e-05 6.300310811622636e-05 7.618515577319938e-05 9.751412685525231e-05 0.00014940440144663178 0.0005707044565030575 0.00707189497337068 3.1247928194706636e-05 1.4879498593591217e-08 3.837706336669915e-12 6.847097023244274e-16 6.0044120233561566e-18 1.2572250519142341e-17 2.3190344622366282e-17 1.2745882399657528e-14 3.059591595176929e-10 4.176673695425294e-06 0.003776516234808668 0.004337874407734905 0.0058915957855010595 0.009791262747155964 0.018823279081546376 0.033075812833032896 0.02348784469851652 0.02684328074948983 0.03887148051921713 0.042998375493708045 0.04031335756720638 0.035812485614785665 0.031133615178911243 0.02601203861643665 0.01918683497384345 0.008031052544326728 1.6857948696611773e-11 1.0305401889749541e-05 1.830374306537144e-05 2.489921042205126e-05 3.076745890391024e-05 3.645658349482676e-05 4.247014021563996e-05 4.9355928532028377e-05 5.783250718667748e-05 6.904041119744152e-05 8.523057887229733e-05 0.00011287408793643544 0.00019095731731111516 0.0008228659921861574 0.008576688761674308 3.122937516351744e-05 1.4297614520385942e-08 3.641644144329668e-12 6.476158733662886e-16 8.975664636194247e-20 7.604039608738065e-22 3.0634313157742275e-19 1.0733441703176438e-14 2.7644142054930293e-10 4.135132348849712e-06 0.0058304603144862886 0.006626494879633367 0.008485799150283536 0.012549793781965855 0.020875769862261383 0.03308281974132867 0.027946448996623588 0.026617489224927227 0.035177182571639626 0.041503017108892745 0.04138710692418937 0.0378259599340448 0.03318123258859033 0.02780428891178088 0.020591010995150757 0.008784318488967931 1.6360825897866043e-11 1.0040911188506787e-05 1.8223563990305228e-05 2.5288877362634552e-05 3.1831785993669165e-05 3.837524604883436e-05 4.544052403611558e-05 5.363428665361099e-05 6.379546537860076e-05 7.731907312490217e-05 9.716568144688364e-05 0.0001329428795958131 0.0002449539548796637 0.0010987460946661788 0.009872826381159546 3.1345240465104594e-05 1.3926992235222221e-08 3.486261777530443e-12 6.131982294320705e-16 8.399491447273933e-20 2.2630267037192778e-23 2.3020894621737374e-19 8.646719186799306e-15 2.414313286734832e-10 4.050644327834031e-06 0.009788604397320596 0.010787127338587084 0.012714589251527627 0.016463948818675845 0.023499147650006196 0.03343355569192872 0.031932694539331175 0.028463544648573022 0.03252978734454405 0.03885078398168822 0.04118973614171675 0.03932869054592223 0.03519196244487813 0.029710469881539855 0.022123370327984063 0.00957154019933903 1.647964055005119e-11 1.014072781845216e-05 1.8778469187291617e-05 2.6556605942599124e-05 3.402807930567237e-05 4.1714000168935884e-05 5.016868234407139e-05 6.007186685143666e-05 7.240407333823838e-05 8.887853342832278e-05 0.0001134106790335498 0.0001596077596001404 0.00030968472808790665 0.0013550330581808046 0.010817701106694059 3.1649612512491276e-05 1.3800707590947903e-08 3.3922159961899136e-12 5.857328431947744e-16 4.729448861546977e-19 3.533352431593507e-19 4.728033661614792e-19 6.393955801333769e-15 1.9749338863115553e-10 3.851420300218842e-06 0.017475834163713372 0.018390176044572132 0.019762659153964503 0.022375055934862463 0.027371424757456825 0.03467371666773341 0.0354675196907193 0.03186823111055975 0.03197833700645645 0.03623959001575373 0.03980038845872791 0.03991804221999294 0.03689137274732734 0.031628441672159155 0.02374969038750981 0.01037076461830461 1.7395671537228577e-11 1.0723760106155803e-05 2.024639232936913e-05 2.9168853515002167e-05 3.804287800703756e-05 4.742457479552542e-05 5.7942790331561496e-05 7.040609341937239e-05 8.602332856433966e-05 0.00010697098857201308 0.0001383348261399077 0.00019754275453859175 0.00038191868106338 0.0015404777540760394 0.011192330108079634 3.260307508184386e-05 1.4089070220567378e-08 3.425030539625888e-12 1.5280759071753562e-14 1.3585991954899635e-14 1.2509582312361939e-14 1.1487289680274207e-14 1.4333803197296246e-14 1.3504801772036021e-10 3.2628006465223025e-06 0.030748778459795723 0.030894258592133027 0.03069229708960258 0.031144163404604363 0.0333225881524098 0.03753628557169401 0.03896955635466951 0.0361893111262894 0.033804187485966385 0.0350005020484703 0.03799828017513726 0.039521920283690316 0.037995851549538835 0.03341248059662126 0.02543462598152791 0.0