# vtk DataFile Version 3.0
vtk output
ASCII
DATASET RECTILINEAR_GRID
DIMENSIONS 41 41 1
X_COORDINATES 41 double
0 1 2 3 4 5 6 7 8 9 10 11 12 13 14 15 16 17 18 19 20 21 22 23 24 25 26 27 28 29 30 31 32 33 34 35 36 37 38 39 40 
Y_COORDINATES 41 double
0 1 2 3 4 5 6 7 8 9 10 11 12 13 14 15 16 17 18 19 20 21 22 23 24 25 26 27 28 29 30 31 32 33 34 35 36 37 38 39 40 
Z_COORDINATES 1 double
0
POINT_DATA 1681
FIELD FieldData 1
Concentracao 1 1681 double
0.0 4.336469993826322e-54 7.632730749116556e-48 7.838445949951651e-42 3.812777322249049e-36 7.82727155269834e-31 3.5003974279018606e-26 4.375246656517063e-23 6.331983165993714e-21 2.7805347376553264e-19 5.9358984935775815e-18 7.871661245666291e-17 7.468868143255572e-16 5.579059776174768e-15 3.535542096883634e-14 2.044737562699201e-13 1.1311666147752198e-12 6.129058672507729e-12 3.1601835288427914e-11 1.4570465749917064e-10 5.671916590325273e-10 1.8065330851198725e-09 4.686636270749047e-09 1.0025411187680482e-08 1.8029029793828056e-08 2.7843410509148634e-08 3.797188672021287e-08 4.695662369559708e-08 5.386397248425088e-08 5.829123610975875e-08 6.012343881046941e-08 5.953950246626054e-08 5.666568671326671e-08 5.1487475485740347e-08 4.409282810363853e-08 3.478797799408351e-08 2.4618983030463128e-08 1.485280926836939e-08 7.497759895976114e-09 5.176494785385031e-09 9.024201599817908e-09 2.1388211174865367e-54 5.420591828752896e-48 9.540921069126445e-42 9.798065275885514e-36 4.765975465588634e-30 9.784097176900506e-25 4.375500285274754e-20 5.469062472454616e-17 7.914984948517817e-15 3.475671165559353e-13 7.41987905287047e-12 9.839584275807572e-11 9.33609264793761e-10 6.973830299278236e-09 4.419431156646639e-08 2.555923998111564e-07 1.4139593917867573e-06 7.661329469693334e-06 3.950232571237018e-05 0.0001821309675786208 0.0007089901409823182 0.002258168129839498 0.005858299988650092 0.012531773918185288 0.022536305271314862 0.0348042909798463 0.047464896308916565 0.05869582657612004 0.06733001890117267 0.072864103153391 0.07515435863652557 0.07442443724224283 0.07083216466408107 0.06435939557313493 0.05511607922237627 0.043485007280582376 0.03077375321231809 0.018566026232146506 0.009372207367730038 0.0064706236438583885 0.011280260990525216 4.1906688383674165e-50 2.0069685463591289e-44 2.29885275913975e-39 1.9099423975453748e-33 9.935568917257815e-28 2.462605737872234e-22 7.4008209222233835e-19 5.801561792193102e-16 5.746827564423644e-14 1.8790268998758746e-12 3.178076441001491e-11 3.45536556341329e-10 2.729985245547993e-09 1.7153221435031743e-08 9.454244842585019e-08 4.891071067977984e-07 2.660911249081229e-06 1.4734415624830098e-05 7.92205697209982e-05 0.0003768282609903022 0.0014799685466676442 0.0046650193631043915 0.011794174282945689 0.02425704901795562 0.04149014451967288 0.06035765948864453 0.07734911117436175 0.0898962807411959 0.09673764035714835 0.097741960548199 0.0936353687628365 0.08591628775487144 0.07625430941706651 0.06604178260685122 0.055879312579248046 0.04554770429940253 0.034132361232946426 0.022239702722037243 0.012463148767099525 0.010842481417033211 0.02104656106410938 3.8907214608613947e-44 2.1138911528550738e-38 1.4052378901150171e-33 1.0119006212155292e-27 5.431285221398647e-22 1.566046823944695e-16 5.445769757824997e-16 2.496953799916851e-14 1.011884299489336e-12 1.9009143864356733e-11 2.1686078422914524e-10 1.7201053728343503e-09 1.0205355453318946e-08 4.7337853091527653e-08 1.8735024840260997e-07 8.194846064422426e-07 3.822587398178908e-06 2.212331769481313e-05 0.00012812869898557857 0.0006365634728350098 0.0025254956746846103 0.007858139521179114 0.019300211201912193 0.03802048057968079 0.0608139679311463 0.08113792792159602 0.0956362141284648 0.1041303286551764 0.10586616823867716 0.10131386658857179 0.09189446628716304 0.07976680368603124 0.06705824623021975 0.055548022729543164 0.046144009965829985 0.038118628228746364 0.03012290053614398 0.02081202384961158 0.012857391188776662 0.014017898251258121 0.029505633901040395 1.671932304539546e-38 9.81023414536544e-33 6.875942684030257e-28 4.883232467646762e-22 2.8498590667711835e-16 1.0250414003524924e-10 1.717749691278323e-10 2.5771836152394126e-10 4.919256250128438e-10 1.709153021266692e-09 8.12652108356193e-09 3.688980470432654e-08 1.421877164377444e-07 4.5055501242548815e-07 1.0225311403405342e-06 1.9132076490728993e-06 6.231592186941968e-06 3.4904233117474146e-05 0.00021467994217595987 0.0010875952679067326 0.004271223525302477 0.012899188521105626 0.030379389837997716 0.05694787908137738 0.0823597490219567 0.07997161647158715 0.08577577689823412 0.08831272203641419 0.08622615143738732 0.0796506446992163 0.06980350858061227 0.05857152919651338 0.047697198297185286 0.03839367796256834 0.03255998442955739 0.028781762439142704 0.02458371776631982 0.017822042737512343 0.012130147691269865 0.01662115301451354 0.03685590949586403 2.9219392687376212e-33 1.8039134758213338e-27 1.6083369416123183e-22 1.2483077521749243e-16 8.813262523002829e-11 4.955351988249856e-05 3.7983542306907347e-05 3.653735264450122e-05 3.489497847852333e-05 3.34080165079176e-05 3.231143744795777e-05 3.170807921768569e-05 3.2434742183067955e-05 3.218760625147785e-05 6.014611378168315e-05 3.786609901455774e-06 1.099041893156293e-05 6.943912255981361e-05 0.0004179275502632718 0.002049152849543694 0.0076011628059865334 0.021488164804214113 0.047122467282218514 0.08055190954919843 0.09289460898008639 2.1876674573899895e-05 2.522449025725959e-06 2.3517646763381883e-06 3.02314496064219e-06 3.022356347034261e-06 2.7624969757520144e-06 2.395664461367163e-06 2.0753599564407905e-06 1.7218878180013744e-06 2.765575226229822e-06 0.024545762636237343 0.020370784002062086 0.014684107379692349 0.011168195151582861 0.01916659859100517 0.043245646161076616 8.136518830493664e-29 4.920763935126082e-23 1.7076386242676884e-21 3.109628882041095e-16 1.2828798432636238e-10 2.718057966642463e-05 2.391654302015933e-08 1.5135300573904526e-08 1.3673024096575582e-08 1.2239258259801086e-08 1.1064693624708583e-08 1.02486812420717e-08 9.972059910153726e-09 1.0324267161794807e-08 5.404791500066001e-06 2.3010646929558038e-05 4.686674070267453e-05 0.00020904743059492803 0.001057868547851729 0.004427772546235438 0.014366998007787755 0.03589883523022646 0.06948949047722847 0.10199485869414963 0.08994826320732181 9.286480911608219e-06 5.861456914226813e-10 4.4134169409101084e-11 7.048729716459432e-11 8.045530168043025e-11 7.984565202739016e-11 7.410928355310861e-11 6.809948295566233e-11 6.71607157401349e-11 2.3106371731108464e-07 0.019090674713449513 0.015957884360369257 0.011692486918923297 0.010440291282031174 0.021973299789654198 0.04875645246765749 7.562789359813265e-26 4.6433195109202376e-20 5.693753603785761e-19 6.042760131079162e-16 1.7057172567252596e-10 2.6939714019076548e-05 8.354956131201637e-09 4.338453342129232e-12 2.6161188774901183e-12 2.198436875010339e-12 1.8549860989892234e-12 1.6009889610614336e-12 1.4623830358864372e-12 2.2481935498311913e-10 5.388215077070047e-06 0.00027662838257235244 0.00042896831798468546 0.0010650027471440027 0.003447334253185252 0.01068845167734743 0.027723143297600582 0.05756911437167688 0.09343181331231336 0.11179101379928107 0.07541949493406566 6.3439271324926895e-06 3.3566563613983863e-10 1.3961611925929908e-14 1.4036442290047882e-15 1.7775759182030624e-15 1.9061480141207265e-15 1.877578193364659e-15 1.880725275019894e-15 3.1075599896473368e-12 1.7389353189953787e-07 0.014037735327945515 0.011820120551043227 0.009094293666191923 0.010287099035737593 0.025184295235843934 0.053365958690787224 1.0107623231784249e-23 6.25754027393468e-18 5.139274459216825e-17 2.0827235054306966e-15 2.142782975665363e-10 2.6485120329200154e-05 7.887926429767002e-09 1.1753025084310031e-12 4.4792453722882e-16 2.587357983959154e-16 2.0222368436134175e-16 1.6042806849562239e-16 4.004809341032899e-15 1.965540404193729e-10 5.37701366023419e-06 0.002313064694882797 0.003073128218165875 0.005402401541784445 0.011546796611843484 0.025404599152989198 0.0504582224344198 0.08420891464346518 0.11217432415485903 0.10948268537269143 0.059808219041174455 4.28725042058862e-06 2.134717092107167e-10 8.223415142514492e-15 2.876793893517484e-19 3.5079065931232184e-20 3.973519643375745e-20 4.1542414351988694e-20 4.767300809067906e-17 2.534948520878099e-12 1.307078059301589e-07 0.009932475007209837 0.008492215602875062 0.0072114688029858015 0.010856076038940786 0.02863918102337444 0.0569599357497071 4.6748269711632675e-22 2.907285320742964e-16 1.8169419989683284e-15 2.560657138526338e-14 2.592650055029789e-10 2.5308396743596332e-05 7.095551205995979e-09 9.920116310857997e-13 9.335200931035613e-17 2.9295672955537426e-20 1.6184628596872298e-20 4.7861561211282407e-20 2.878272523111504e-15 1.6446948166036646e-10 5.309415423215102e-06 0.011326298668934186 0.01371199726653081 0.019564642249591733 0.03144861275205322 0.05196159408545081 0.08045556985417301 0.10873913527016 0.12036056968130919 0.09879161455367658 0.04583465961437267 2.9334077583237535e-06 1.3762008724305375e-10 5.159580090730572e-15 1.62531233376893e-19 5.1117547675759605e-24 7.553438939398617e-25 5.551195102732777e-22 3.817518265472687e-17 2.0811641502957627e-12 9.986490838758199e-08 0.0068235918599326975 0.0060371491054935136 0.006109551929039172 0.012042171363806834 0.03197768423388201 0.05936420557466623 1.1238842929322983e-20 7.006847775757187e-15 3.603562614942687e-14 3.3714419541216826e-13 3.1588470036481715e-10 2.4095328429857856e-05 6.2682042661465896e-09 8.115104348942162e-13 7.00618691055788e-17 4.5873975182004114e-21 1.496496758889381e-24 2.2233333649882353e-20 1.961857085283608e-15 1.2830292665937248e-10 5.063738451582051e-06 0.03457091377711176 0.03916277782094013 0.04864787215979654 0.06430438697107996 0.08574907927733169 0.10853025708842232 0.12298792382687124 0.11702464059269915 0.0841188512267427 0.03463455789954536 2.0345244076189565e-06 9.091926370518112e-11 3.3081136474496827e-15 1.0215873487203784e-19 2.7679994457333306e-24 4.6879185937663866e-27 4.1305344106303796e-22 3.0145075199246056e-17 1.7133963791039408e-12 7.847223649230619e-08 0.0045930321640414405 0.00437142526354771 0.005680021468330063 0.013544970872293728 0.034717735300194286 0.06041243900276742 1.7328910897272008e-19 1.082064208327965e-13 4.818070125672954e-13 3.4381875731930435e-12 4.4532168883196953e-10 2.2948533424668143e-05 5.534997860666983e-09 6.563676338159683e-13 5.1221943879068126e-17 1.2764520520532351e-20 3.2293601356970743e-21 1.3093537284221591e-20 1.198837057736685e-15 9.069321910772461e-11 4.470400208946808e-06 0.07061236568685503 0.07602347919405246 0.08558929952276675 0.09875233636404446 0.11305094745858803 0.12340874489628177 0.12281679334421057 0.1049989449000754 0.06921372318361073 0.02645383459305582 1.463086682661777e-06 6.306375824006874e-11 2.227262987754845e-15 6.698516121212023e-20 4.301554754298929e-24 1.508799797373414e-24 3.005080468271167e-22 2.3315466175724967e-17 1.4038567714833485e-12 6.362806776743453e-08 0.0030728126966774296 0.003346510278919607 0.0056972202064830306 0.014922126704811963 0.036381458815428425 0.060032371013467374 1.9355851091074134e-18 1.2105441035559929e-12 4.839372854745794e-12 2.8070568258798132e-11 9.51915741412854e-10 2.2620670903158746e-05 5.044901468202948e-09 5.496212698143287e-13 2.1353975838601658e-15 9.291423447427786e-16 3.511978836698692e-16 1.1641701949219127e-16 6.703931425776543e-16 5.5903844975820385e-11 3.455695756290499e-06 0.10071346593288354 0.1043031641838053 0.10970991354288409 0.11570230359421824 0.11992667932539001 0.11902957015373614 0.10937943712470263 0.0883018625002032 0.05621561293540882 0.021129894241928862 1.1430140431810723e-06 4.787413608139687e-11 1.6464120658258292e-15 9.642777056676887e-19 5.687865865525781e-19 3.476303261114471e-19 2.0954294381825417e-19 1.7581241264041187e-17 1.1299430475032453e-12 5.2833628541286845e-08 0.0020974396880177773 0.002779598988178828 0.005841103477822415 0.015663368241975128 0.03660528729686318 0.058326361910678304 1.7609552281807845e-17 1.1086597924522042e-11 4.222254329228108e-11 1.9218416828719062e-10 1.0464148964804573e-08 2.105534918063249e-05 4.933699525906471e-09 1.9731711824709472e-10 1.2830146199067872e-10 6.885242965982242e-11 3.098085579412443e-11 1.1976415924180477e-11 4.046894897097673e-12 2.95751312806699e-11 2.181782704872262e-06 0.10081964913603789 0.10180268773276731 0.10315315315005331 0.10382807287931767 0.10237147048394085 0.09719657614070268 0.08673551315477686 0.06970708177215103 0.04572579232713224 0.01790615512219344 9.341931006039015e-07 4.002475913750406e-11 2.8474149702450034e-13 1.8524464119986779e-13 1.1875953386580255e-13 7.488811487018768e-14 4.6474283671069465e-14 2.8352342669041808e-14 8.869176628660106e-13 4.388253815516315e-08 0.0015210891685892014 0.0024598491586751534 0.005717075578511514 0.015320296425799355 0.03523682305426413 0.05560998253613309 1.4164937319492247e-16 9.061690617186115e-11 3.52853820351156e-10 1.2256358372217663e-09 1.7997046892268213e-08 4.5380502549184066e-05 5.64168287893801e-06 5.525478478050573e-06 4.864059183345649e-06 3.5027283572111642e-06 2.030137197302277e-06 9.694190337657355e-07 3.9107614106871063e-07 1.3473196672651255e-07 1.0331823473139391e-06 0.06609299788769438 0.06698114401641246 0.06901005755033439 0.06981141418621377 0.06887123598354737 0.06567985128373893 0.05973395732913678 0.05016919140455817 0.03626178191371944 0.017891898950831958 1.3929800916063034e-06 7.172945784198697e-08 5.0085230355150415e-08 3.4079485058411646e-08 2.27078546249379e-08 1.4855880545696396e-08 9.548421560195769e-09 6.021451546097285e-09 3.7073395845389583e-09 3.573374809093853e-08 0.0011986033195923547 0.00203739049157334 0.004993321696248548 0.013686748644171827 0.03241322934929361 0.05236543011031642 1.2278742097671235e-15 8.220046321426435e-10 3.5298553283057365e-09 1.1082854767249963e-08 4.2971654855733185e-08 2.183252178642833e-07 0.00033545886314167365 0.010727832613805973 0.04693193540192911 0.08021323167851878 0.07894079062951169 0.05410789504657309 0.028522499555752374 0.01212490393928074 0.004136383937723574 0.012108931215993263 0.02424851519415411 0.02990311447252968 0.03315260558008045 0.034714358820832895 0.034914393470337 0.033702783634854606 0.03093868609455742 0.02524933306628556 0.016513785497371383 0.013712385114411918 0.010535464206422715 0.007760215417048201 0.005555168428620919 0.0038839668150032884 0.0026588625654522797 0.0017835630109873178 0.001171124795773528 0.0007492626056426613 0.0004610373693603906 0.0002484497818982194 0.0011123876537930013 0.003532033130388476 0.011038209461647757 0.02842246112623631 0.04910717955160786 2.034073681788885e-14 1.5233522601503003e-08 8.05294072713412e-08 2.355547710990865e-07 5.545690936165524e-07 3.9248064412824805e-06 0.0007543628748664779 0.017062801423088778 0.05898457803699728 0.08596270235967565 0.07535769375142302 0.04729557603673032 0.023296972849690276 0.009458047466619955 0.0032166723257942243 0.001993499637567613 0.004686364172330846 0.007824697628115993 0.010293815876297022 0.012126114702055983 0.013431789829561077 0.01428833061156426 0.014510241620025309 0.013911688520958703 0.01148115953366764 0.009647292372662968 0.007365061006323739 0.005348889802198749 0.0037626489640747293 0.0025828108016962403 0.001736691441133455 0.0011464456756589054 0.0007439865713638898 0.00047517615066497 0.00029756131455303705 0.00018075611358167574 0.0004367497516553589 0.002055572856106357 0.007838167841217778 0.023929118870171986 0.04622272693346004 1.7686005684101476e-11 1.6738589509166225e-05 8.935793031860714e-05 0.0003495603972700653 0.0009288718017075894 0.0023508850093829823 0.009830309231815193 0.0458067561627651 0.08439453318921691 0.08477091788718451 0.058002741731663386 0.030500435535968963 0.013230165462139109 0.004968138533155265 0.001690054918376545 0.000614526128415885 0.0006356017232684954 0.0011874481853437625 0.0018952123577956068 0.002605247926917381 0.0032878184001068162 0.003938331269092612 0.004525467783218502 0.0048740275398102125 0.004663703532509088 0.003967387887746691 0.0031255483601547868 0.002256756622067487 0.0015613908297131428 0.0010498193575758097 0.0006918039252120413 0.00044953605251014776 0.0002902894508536596 0.00018853911362093695 0.00012595524729818995 8.821693393965864e-05 0.00015969111620710904 0.0009444555228825773 0.005289870163254297 0.018733985688059868 0.0439390380063677 1.4297821258509332e-09 0.0015146623303293636 0.0076749965370130424 0.015096248086322105 0.023948719126224042 0.03638933356956833 0.056195025211893054 0.07893809633782763 0.07101766350212829 0.04609668521691237 0.023523264462099014 0.010022720854921178 0.0037313215966369704 0.0012662597033359934 0.0004103191244685678 0.0001352496557843791 6.689641341203303e-05 9.008295172885256e-05 0.00016187589876556115 0.00026183397385635726 0.0003833421034440211 0.0005267383656402249 0.0006855968903776878 0.0008249407320791067 0.0008580231929126179 0.0007816844060858273 0.000618451774419852 0.0004486126785402312 0.0003058488860414876 0.0002015834912847312 0.00013020476174695902 8.336034990876538e-05 5.36892376173014e-05 3.5734155790560344e-05 2.5664072413199193e-05 2.1164524216844086e-05 3.454283328188904e-05 0.00032617273146327564 0.0020925618034362123 0.014837775496809036 0.04219999073114881 1.8538983798681964e-09 0.0013234630537230338 0.0001968825407545422 0.0001585417348117462 0.00018111564063484728 0.00017873372462169567 0.00016342104432069828 0.00012049067369689282 6.973427230740767e-05 3.310215813801061e-05 1.3385055746784352e-05 4.76057407702195e-06 1.5338029040102713e-06 4.6276227537411226e-07 1.3616998331678958e-07 4.158565914467582e-08 2.0802761389427247e-08 3.079390434631792e-08 5.6652005871082577e-08 9.12612727712789e-08 1.3221753381279082e-07 1.7940645095957025e-07 2.300998127996454e-07 2.71499712336445e-07 2.743499134878905e-07 2.405188218745477e-07 1.8127041640632439e-07 1.2445939730987663e-07 7.999711667903775e-08 4.9583458294401734e-08 3.004530366474477e-08 1.799875945935701e-08 1.0810916022961764e-08 6.6844483834232545e-09 4.431058956198828e-09 3.361700520474245e-09 1.562062727985642e-08 3.256114330918821e-07 0.0020920612285332462 0.011739073858567796 0.04073549202139506 2.020098256450521e-09 0.0013080284617295462 5.277065528701927e-05 5.317602704440226e-06 5.329543455416706e-06 5.309670886568086e-06 5.252635767210666e-06 5.1723392626177995e-06 5.094981498361636e-06 5.004814878954244e-06 4.863549418796456e-06 4.636452687406602e-06 4.313940924970562e-06 3.916299581911461e-06 3.47929835525743e-06 3.0346106171385572e-06 2.6043362553124625e-06 2.20051962738108e-06 1.8309370794577991e-06 1.5005278375389505e-06 1.2114108387823506e-06 9.629138369721985e-07 7.519202849685428e-07 5.737358568070673e-07 4.232321048588389e-07 2.9609023016548746e-07 1.9077083321949767e-07 1.0794499547267227e-07 4.984264507288454e-08 1.6436444885686497e-08 2.7274793745004185e-09 3.147022382235786e-10 6.679157579772201e-09 2.348288286563509e-08 4.861534516835562e-08 7.610668920675581e-08 1.0086289873515257e-07 1.660787268970518e-07 0.0020893425672801444 0.012585524961189734 0.0393996777133674 2.0327988083946407e-09 0.0012266267596810563 0.0012724202543978292 0.0013691484137601483 0.001536700559108795 0.0018201270796298762 0.0023670585642158824 0.0036571933181532936 0.006920007293494056 0.014210841134720868 0.027299226907855936 0.045788814892742224 0.06651989241723218 0.08524064499210778 0.09885313672762834 0.10624499920386021 0.10770829543570411 0.10421816723476149 0.09700233605005625 0.08735872942394854 0.0764935473908853 0.06537532989955516 0.05464501551311533 0.04461552578876013 0.035346531242454404 0.026762515231856247 0.018864738690719716 0.011825370740305131 0.006117852457220351 0.002277790361889969 0.0004277137515779881 4.512975315498662e-05 0.0008215370094074776 0.002442795842792635 0.004305840327722417 0.005840495227607292 0.006878766083266807 0.00750533554552651 0.007661890573142961 0.014899841603945906 0.037896973184288855 1.712377961329077e-09 0.0008923524273115815 0.0011728680739385529 0.001307887410178732 0.0015016999755816526 0.0018097176224557217 0.0024033790704629356 0.0038181193026811055 0.007388093587572985 0.015253336561901686 0.029091549295254503 0.04815152474562445 0.0688605901003778 0.08655610657112407 0.09825292395589948 0.1034050681660308 0.1032688205619266 0.09912239488948793 0.09214203330110067 0.08338094984985535 0.07377796706082318 0.06403844851007265 0.054591024323196735 0.04557583178367662 0.03688481820532051 0.02850487086674444 0.02029199882170829 0.012784053271622638 0.006595967990444723 0.0024431252772518556 0.0004622696866846555 3.5461552435516255e-05 0.0007932837517042447 0.0025032176273165406 0.004666671317852675 0.0067390153516248726 0.008562335596799284 0.010272337297337248 0.0126478158035411 0.019732177496098086 0.036073919576522395 1.390676439392085e-09 0.0007369283054076395 0.0010584290614986916 0.0012752348931877177 0.0015103622331387922 0.001874012766079523 0.0025881473411584243 0.004330000106475943 0.008679931160563899 0.01796732120737623 0.03366169700415658 0.05423758193933586 0.07499640965776205 0.09031514313679158 0.09709401618502937 0.09654722469758517 0.0926826146015523 0.08737652716400679 0.08064213520368373 0.07302423151967896 0.06505060636786923 0.05712105453106666 0.049504429902379736 0.042303955519018374 0.03537833923063228 0.027959684128250322 0.020575607492779927 0.013059072771003408 0.0067214696032251615 0.0024809329007444546 0.00048576158616930225 1.4548498331654234e-05 0.0006677962513969387 0.0023037123330471383 0.004558531846570256 0.0069094057823497 0.009168560033449727 0.011489027560117254 0.01478579233602354 0.02120241288212638 0.03367104108586404 1.1586021532511924e-09 0.0006421581481074124 0.0010052442458667215 0.0012797922919696764 0.0015854971444625244 0.0020589152240000977 0.0030400372771875084 0.005473567673500101 0.011328813403645166 0.023073805922331044 0.04154552746226536 0.06376218862356907 0.08329594782139488 0.09342226763786086 0.09046646019144053 0.07182907080896106 0.06560261024810078 0.06048001588744033 0.05539466892451827 0.05014992066133696 0.044883855931446004 0.0397370084117351 0.034909359327234865 0.03051227498583638 0.02722947480271954 0.02413778625285361 0.018775884834755962 0.012232340867275707 0.006296589859714145 0.0023405717674769254 0.0004864045040408515 1.770618152852508e-05 0.0004868990870119173 0.0019152784378900535 0.004074965709082283 0.00649539935561531 0.008942818917684258 0.011582370931769573 0.01507784494849402 0.020886509872300608 0.030651362058681842 1.0455353013670473e-09 0.0006047329425116872 0.0010096078909048712 0.0013612963047812455 0.0017866593891001587 0.0025030628099300995 0.004075258211675747 0.007878065751963967 0.016279364378126798 0.03145350217352877 0.052751551641897654 0.07505845451448119 0.09036304641638872 0.09260678397187048 0.07211949551674605 1.745478055206507e-05 1.6187922178400906e-06 1.3612733397041e-06 1.1448449700928404e-06 1.413035916905398e-06 1.5365068721932253e-06 1.5515159748513024e-06 1.5575389038656377e-06 1.4454911429752382e-06 2.4696105059374867e-06 0.02112154830406456 0.01664744636193825 0.010570275041509305 0.005428852339341295 0.0020365275372154373 0.0004594779784334114 3.089180114742365e-05 0.00029886149254372584 0.0014343538828742988 0.003354547471843658 0.005671761638252551 0.008128110500214497 0.010810805445494365 0.01422658810295717 0.019336558933512733 0.027194708628679364 1.0535952115195036e-09 0.0006258828033577523 0.001115531085201579 0.0016140507410752733 0.0023118032156749426 0.003609414234791185 0.006454128461040694 0.01269939785241658 0.024714713752894087 0.04343414974092433 0.06586276388639174 0.08499747468841991 0.09330419303539546 0.0856324496345009 0.05381137301961504 6.634001221748709e-06 5.48268675062372e-10 2.0866835772001387e-11 1.71706184662686e-11 2.8856122208421282e-11 3.743158174458661e-11 4.307715396007972e-11 4.7802153002968306e-11 5.2669148633953545e-11 1.6633327165120278e-07 0.01655983616317322 0.013020894331935812 0.00829508708621494 0.004234953817980102 0.0016324456175661173 0.0004080203603885826 4.4829673923292945e-05 0.0001608722285231214 0.0009545159495366945 0.0025402204481701986 0.004627695272479592 0.006948040243230753 0.009511941494319014 0.012674797127142952 0.01711994264052067 0.023525800613984224 1.2698220543572815e-09 0.0007662362775006838 0.0014801136483551963 0.0023524945737737786 0.003736724990217987 0.006350498919198634 0.011564585194325325 0.02135126661169008 0.03715246009579195 0.05773152598470669 0.07799333780139502 0.09095116014353474 0.09145612173014749 0.0760513622881335 0.04105179058439667 4.33511111887623e-06 2.9941338741511994e-10 1.548263614553085e-14 2.3866917855751034e-16 4.836347272481175e-16 7.175204578946325e-16 9.116059932292386e-16 1.104540176518784e-15 7.814156762925148e-13 1.0617461398170902e-07 0.011740028988681818 0.009117449158472438 0.005812594678919931 0.0030111834324595137 0.0012128553335093272 0.00034247179147087214 5.490655227300274e-05 8.60537864400616e-05 0.0005750367369038892 0.0017535972950559467 0.003528109899812201 0.005617507773908763 0.007962144221529114 0.010799236664043721 0.014625568055218478 0.01988968606363536 2.0189622065922396e-09 0.001229541819592522 0.0025632979324581736 0.0043740973766000675 0.007272273539553516 0.012283499724551864 0.02085752458727629 0.034262462740977336 0.05216639854855114 0.07137298377408793 0.08647837886948234 0.09257960659430378 0.08701126872315533 0.06718391077359753 0.03191349697174481 2.910543109226197e-06 1.8621015982040729e-10 9.053449976440228e-15 3.5916891809871405e-19 7.138034334998668e-21 1.1443512507417698e-20 1.5476670334624215e-20 2.4281064088321064e-18 4.107588592844293e-13 6.079754849829453e-08 0.0074935835161972445 0.005751486428778881 0.003684773105964891 0.0019635747518968803 0.000843631338619686 0.0002726022271455493 5.9178645173742916e-05 4.812527105853678e-05 0.0003255797657325687 0.0011295031721502236 0.002520394482330868 0.004309173077941452 0.00638114223901009 0.008868574833763075 0.012142593642663162 0.016492195400427307 3.9854485354931096e-09 0.002440298505614047 0.005212019076495835 0.008905534556213356 0.014323356800939413 0.02247306731403341 0.0342332309445884 0.049546204281913135 0.06653687043524698 0.08156998355615472 0.0907195544340252 0.0913475218340127 0.08169350684667835 0.059297353615284334 0.025825263273452786 2.1389260782005083e-06 1.2790974244851283e-10 5.967776394803167e-15 2.285297265721815e-19 7.59065197539081e-24 1.5810108091818567e-25 5.36117860461664e-24 1.0445523918329878e-18 1.9109747812158028e-13 3.077377877524085e-08 0.004227872124382962 0.00322488700776783 0.0021049358720625798 0.0011754466140302408 0.0005491954682169688 0.00020485600408043768 5.7273956693030106e-05 3.0193010524655424e-05 0.0001741943302451785 0.0006821896870339331 0.0016974065826911293 0.003151118520549043 0.004930683459054669 0.007083191164477107 0.009870430049413608 0.013473511868590134 7.909101916259887e-09 0.004858871754990982 0.010172365830354066 0.01666569297746875 0.025070227528928967 0.03594407217916893 0.049258648514032284 0.06391473520164788 0.07766612745503751 0.08778541742175727 0.09202132704721644 0.08878094398583203 0.07624427485913594 0.05251932007806713 0.02139513542713377 1.6358494159908414e-06 9.219121834464479e-11 4.1079158694461264e-15 1.516069523840224e-19 4.818895812477212e-24 1.653490452844856e-28 1.7952755299189173e-24 3.8740902778185313e-19 7.603278988427685e-14 1.3313203769728237e-08 0.0020353148910910914 0.0015603116867095703 0.0010595683848165203 0.0006353101757189516 0.0003296079994272628 0.000142949551523003 4.983557625587407e-05 2.17811048474642e-05 8.887767414168893e-05 0.00038723384025045104 0.0010797883435550305 0.0021997745623862476 0.003681816592667273 0.005524777108198445 0.007898055613852624 0.0109027334950373 1.4004471480308994e-08 0.008622454021652588 0.017413850712511007 0.027072931226233946 0.03804292572672527 0.0503330680352979 0.06330460774668398 0.0756197561570967 0.08552852183225156 0.091358950377884 0.09177236963527573 0.08548988394382016 0.07088794987668753 0.04699878926112864 0.018373535395278758 1.3193866724772628e-06 7.071792445109415e-11 3.0050469654053624e-15 1.0600308676421694e-19 1.0675724960467911e-23 4.391089545123589e-24 3.042720572566055e-24 1.1386577322344482e-19 2.3978279353503273e-14 4.5629609993673185e-09 0.0007750557901884913 0.0006096541590639911 0.00044591306095889216 0.0002974812841444385 0.00017612690908047244 8.982141549896047e-05 3.839350228946759e-05 1.6842138489411154e-05 4.3972299634246036e-05 0.00020680865820646207 0.0006492313546706273 0.0014668072041549081 0.0026603618374787474 0.004221634584731128 0.006251427987837464 0.008788759582381032 2.2382884351189107e-08 0.013802098397310227 0.0267361118710402 0.039452862965526796 0.05215740805812299 0.06456859367343559 0.07593627880554597 0.08519412952021096 0.0912272239925915 0.09308892250003427 0.09000660000664007 0.0811787735911527 0.06561194812894022 0.042812990935199455 0.01673550346487301 1.1649973717096175e-06 5.973222401270454e-11 2.426440459162695e-15 2.5156176328395444e-18 1.520986790850519e-18 9.314502373630696e-19 5.607074403104943e-19 3.541492094880338e-19 4.832984410401195e-15 1.0002208278093944e-09 0.0001887963436108361 0.00016099158607654835 0.00013840505229658948 0.00011065675567427255 7.863931480740138e-05 4.83884906185163e-05 2.5372809864138334e-05 1.2482021438543764e-05 2.1562678878742167e-05 0.00010392299831215047 0.000368524115721689 0.0009333532257159182 0.0018601183591822584 0.003166593334910781 0.004915884231008312 0.007099933043945884 3.4059640042290806e-08 0.02102479990139478 0.038745991848640984 0.05410157646768149 0.06740654979167983 0.07850625835721624 0.08694960959977076 0.09219702546418743 0.09381073953878566 0.09154727807010381 0.08530834622922466 0.0749547877752136 0.060060073299255376 0.04003934022627383 0.016227367265892245 1.0795012482422996e-06 5.588186541731179e-11 6.4283307709643e-13 4.291716210199343e-13 2.8044947217723796e-13 1.7943952038303148e-13 1.1269681712408204e-13 6.967535537160237e-14 5.61