# vtk DataFile Version 3.0
vtk output
ASCII
DATASET RECTILINEAR_GRID
DIMENSIONS 41 41 1
X_COORDINATES 41 double
0 1 2 3 4 5 6 7 8 9 10 11 12 13 14 15 16 17 18 19 20 21 22 23 24 25 26 27 28 29 30 31 32 33 34 35 36 37 38 39 40 
Y_COORDINATES 41 double
0 1 2 3 4 5 6 7 8 9 10 11 12 13 14 15 16 17 18 19 20 21 22 23 24 25 26 27 28 29 30 31 32 33 34 35 36 37 38 39 40 
Z_COORDINATES 1 double
0
POINT_DATA 1681
FIELD FieldData 1
Concentracao 1 1681 double
0.0 1.1314938713728776e-57 1.7606164263158637e-51 1.8226171379848895e-45 1.0073208172366313e-39 2.43592827864656e-34 1.4253263680390328e-33 4.9991883116265644e-33 1.3302314310484584e-32 2.9442993143233377e-32 5.700954449152136e-32 9.95545072923855e-32 1.5962002071392145e-31 2.3708729705214795e-31 3.280141223604674e-31 4.250464594964721e-31 5.223531525088384e-31 6.191802447115564e-31 7.21227860728447e-31 8.368035384597378e-31 9.76682319098696e-31 1.1543902678637404e-30 3.846490393739862e-30 4.172174646972238e-25 6.669876918262671e-20 1.0598743728332424e-16 3.9311514416544995e-16 6.792019440351246e-16 8.2319529390257e-16 8.259054159576505e-16 8.245535972137853e-16 8.169475314630715e-16 7.98873587726396e-16 7.643435693053618e-16 7.088899110679943e-16 6.30392006580018e-16 5.360961263656382e-16 4.3288699935596687e-16 3.5319480023125206e-16 8.242577396953856e-15 2.7918209034549744e-13 1.2087551030498588e-57 1.4143684707099684e-51 2.200772293511256e-45 2.2782732450982497e-39 1.2591520288666063e-33 3.0449127558404064e-28 1.781659385375159e-27 6.248990133419229e-27 1.6627905474132015e-26 3.6803770479771386e-26 7.126198762394618e-26 1.2444323173576955e-25 1.9952518551242252e-25 2.96359358402482e-25 4.100179809647066e-25 5.313084994170496e-25 6.529419593647226e-25 7.739759250696902e-25 9.015355471384195e-25 1.0460052598782107e-24 1.2208538755556891e-24 1.442988968072957e-24 4.80811680877198e-24 5.215222442675432e-19 8.337352817705257e-14 1.3248440259159258e-10 4.913943226672847e-10 8.490031092458498e-10 1.0289949318911113e-09 1.032382591955496e-09 1.0306928210708288e-09 1.021185226061182e-09 9.985927779883986e-10 9.554302219445534e-10 8.861130977249039e-10 7.87990638617029e-10 6.701206898124863e-10 5.411091760744334e-10 4.414938534838653e-10 1.0303229965891927e-08 3.4897789107915625e-07 2.070634040028925e-51 1.9482964840263382e-45 1.8470588496499284e-39 1.5470967250003044e-33 8.371651362846841e-28 2.1775714799102737e-22 9.043578197500202e-22 2.4365570362600832e-21 5.235761807535612e-21 9.693905613013122e-21 1.61061398830844e-20 2.4558744479433607e-20 3.472565284414358e-20 4.551608772530263e-20 5.50571313338353e-20 6.128597942769564e-20 6.347702411276649e-20 6.331624341474017e-20 6.23660448797199e-20 6.210110357283454e-20 6.330138714567736e-20 6.677460109427023e-20 7.415320417119343e-20 1.0376713195952751e-16 1.606183498583382e-11 1.1769628936255424e-08 2.92785900227049e-08 4.303778955364303e-08 4.8692801194181354e-08 4.874804395447844e-08 4.835254264371687e-08 4.7301668716406255e-08 4.516529783788053e-08 4.1367849236103914e-08 3.542358594721682e-08 2.8086434222723982e-08 1.9950244047375868e-08 1.2738930984174836e-08 6.9878320106079855e-09 2.2939458278118356e-08 7.00035380362361e-07 1.9918092772675188e-45 1.8379820221675652e-39 1.397791731505263e-33 1.0079679756977651e-27 5.412320353985214e-22 1.5610403690910837e-16 4.330070348527374e-16 8.616726623238361e-16 1.4501977604323808e-15 2.1970632485708543e-15 3.0861014080245345e-15 4.077832836666092e-15 5.095117481423167e-15 5.954321239446169e-15 6.428783368293089e-15 6.063821008285063e-15 5.2546461717408174e-15 4.262735599635232e-15 3.4968218483119035e-15 2.9393135495823354e-15 2.574830863983642e-15 2.3817461552863577e-15 2.366733957714499e-15 8.248436847870598e-15 8.042121109193649e-10 3.646893548892806e-07 6.7431880598786e-07 7.955905115668862e-07 8.426125553259137e-07 8.428277881997145e-07 8.350867811388324e-07 8.155589945914162e-07 7.772837356954183e-07 7.034580105650284e-07 5.844365405421206e-07 4.0946767624769463e-07 2.6217798917578776e-07 1.3821200321979206e-07 6.003118598471146e-08 4.845529189292017e-08 1.056868431773121e-06 9.828152406758818e-40 9.287140596742743e-34 6.847818619262309e-28 4.867865468444077e-22 2.841165792820546e-16 1.0219794704317839e-10 1.702424631269828e-10 2.3811526593804546e-10 3.057082285286442e-10 3.722487954186041e-10 4.3685920688383597e-10 4.979955189041139e-10 5.529837150657917e-10 5.946306997254782e-10 6.148646177911952e-10 5.08126260078889e-10 3.00879768996211e-10 1.9142571690107784e-10 1.2422761988414805e-10 8.526090429670911e-11 6.217694502948176e-11 4.8958292900610076e-11 4.2410033875835504e-11 4.408438136799777e-11 1.0946397362586752e-08 6.1909360136137935e-06 6.109908018254531e-06 6.085736971272798e-06 6.097340215115893e-06 6.098735698033139e-06 6.065650764066488e-06 5.983586346243316e-06 5.804841737890662e-06 5.504874956297939e-06 4.598528643174372e-06 3.638678142380737e-06 1.8177762367856228e-06 8.311286938136012e-07 2.971930315377964e-07 1.1364877423553677e-07 1.4263106862821651e-06 2.0797676846362613e-34 2.048766282304372e-28 1.6027622346022982e-22 1.2446405466126437e-16 8.787389341302482e-11 4.9408058493387284e-05 3.7905303571449395e-05 3.645357016088179e-05 3.481865205618416e-05 3.333772650852007e-05 3.2245033619395097e-05 3.164360223266245e-05 3.2364876501532416e-05 3.2128868571265565e-05 5.9880695175451386e-05 1.9493659255023338e-09 1.1880716511658212e-09 6.939361417525361e-10 4.4854457493636633e-10 3.0714533926741715e-10 2.2403616616262475e-10 1.7498614097206887e-10 1.5034993926545074e-10 1.4337284535536116e-10 6.738862568090976e-08 3.848177245579555e-05 4.17674206671256e-06 4.591632224601638e-06 7.2695521123106914e-06 9.270217610227526e-06 1.1130948974781923e-05 1.2986603788087879e-05 1.5329863283250012e-05 1.7209409300804764e-05 3.4492368904957405e-05 3.646261129897375e-06 2.5752900011768653e-06 1.3246349027853621e-06 5.389049372762174e-07 1.9404020496831404e-07 1.8179562310694458e-06 1.1992758437513694e-33 1.0696830197090703e-27 5.991276271253215e-22 3.1001227433602294e-16 1.2803331925242384e-10 2.7166726579971024e-05 1.300805039377127e-07 8.497651176184033e-08 7.898042295902975e-08 7.283070551641952e-08 6.789054028821229e-08 6.48924563769327e-08 6.517532941175967e-08 6.986509685584446e-08 5.483348937431999e-06 2.088565456153888e-09 1.4141838737962876e-09 1.0020180865687837e-09 7.156180980084092e-10 5.279217662208738e-10 4.0321200784826366e-10 3.2200108042041794e-10 2.7271606235312607e-10 2.5743049165086853e-10 1.3925081675872518e-07 2.6456060098647456e-05 3.671206066433164e-08 1.8969005074240065e-09 4.014722801514372e-09 6.3026968141251996e-09 8.78039965511453e-09 1.1608930918978919e-08 1.522550073700123e-08 2.0883624202172507e-08 4.487692325669605e-06 3.6589101073091024e-06 2.7301729398411765e-06 1.616152079914454e-06 7.105403475506277e-07 2.7280846916797523e-07 2.2448810929799755e-06 4.060423320958321e-33 3.401531649842796e-27 1.4823072504764472e-21 5.73706840506611e-16 1.7022037627379225e-10 2.6892648984889574e-05 4.625510549460978e-08 1.3502943349288345e-10 8.688291003012375e-11 7.731950114226677e-11 6.922057339398842e-11 6.347579906500899e-11 6.174662781251065e-11 1.9184640269802274e-09 5.3762984323073916e-06 2.2588399858894614e-09 1.5848411339966604e-09 1.192627137048238e-09 9.143438487072139e-10 7.110100277057602e-10 5.635059730913856e-10 4.574465354247629e-10 3.8375581319967443e-10 3.4298584491174704e-10 2.2703581078388478e-07 2.7429517098750928e-05 3.6970835767155865e-08 2.3839356443966713e-11 1.215477361369171e-12 2.2082266032285698e-12 3.475394941041617e-12 5.0714449503315464e-12 7.402617708315489e-12 1.1785503934998778e-09 4.4530089205910085e-06 3.6771564274113774e-06 2.816183624999789e-06 1.7552697550226635e-06 8.238840864330368e-07 3.475970987462987e-07 2.7218829208758105e-06 1.0441622862819171e-32 8.377886275099683e-27 2.9905151596456466e-21 9.224437510344457e-16 2.135943777470547e-10 2.6439701270989157e-05 4.459641393033379e-08 3.7501830570362904e-11 8.360900794776039e-14 5.3336460812406854e-14 4.542482395497067e-14 3.936690033939836e-14 3.475252199999594e-13 1.8310025264776707e-09 5.377413372594894e-06 2.4424356499472167e-09 1.725172902246438e-09 1.3417116912362512e-09 1.0684937515978795e-09 8.606698930201449e-10 6.996505893056304e-10 5.744001912161614e-10 4.771892756428221e-10 4.126257794798935e-10 3.473721988483491e-07 2.7830964630848597e-05 3.854356480124723e-08 2.541199086549483e-11 1.1026345225003752e-14 5.409174395785919e-16 9.246746867067456e-16 1.463602348295744e-15 1.5198350071703367e-13 1.1491379817232756e-09 4.452988012066631e-06 3.701737611305188e-06 2.8737726515104842e-06 1.844156989997107e-06 8.994624465641405e-07 4.269193833949747e-07 3.2650626421529785e-06 2.252365444546212e-32 1.7507156328121797e-26 5.29865426594224e-21 1.3569123838057338e-15 2.563689613526608e-10 2.5268043568630074e-05 4.106727775189129e-08 3.3080835129589605e-11 1.7855426360415113e-14 3.435355329978177e-17 2.1675916075145366e-17 5.108298386838281e-17 3.0120460588472444e-13 1.7988504289812376e-09 5.378736366219388e-06 2.6376116569758243e-09 1.8570805271094554e-09 1.4700957385177012e-09 1.1989881767303194e-09 9.882247133773125e-10 8.175939199613192e-10 6.764580858010379e-10 5.579988800581336e-10 4.742420810996278e-10 4.95655548092717e-07 2.864409872846564e-05 4.029613620147132e-08 2.7333277284476365e-11 1.1966713455106713e-14 3.9471392031132664e-18 1.892574755458187e-19 1.2796138120106078e-17 1.4466080787010714e-13 1.1288923651032138e-09 4.453007528549154e-06 3.7342813280489958e-06 2.9268585452282887e-06 1.9159715362664114e-06 9.619919058706646e-07 5.220962778958898e-07 3.890038885770426e-06 4.2962217385271057e-32 3.2585304071474873e-26 8.570639203842896e-21 1.875185357220784e-15 2.9806662494829914e-10 2.405870047184005e-05 3.716571509369508e-08 2.836458330380312e-11 1.4333001908167323e-14 5.465279219752665e-18 1.4114786038189772e-20 3.161393271425571e-17 2.886716333316172e-13 1.7607993065981831e-09 5.379951923466781e-06 2.8397964842614373e-09 1.9912382108063335e-09 1.593048551580069e-09 1.3198314280573719e-09 1.1054309716585612e-09 9.263442566015333e-10 7.711334145439401e-10 6.33171887467192e-10 5.341443711117903e-10 6.626916081063603e-07 2.9595621741681475e-05 4.2337960376963714e-08 2.928839226727118e-11 1.3084579354958668e-14 4.283459141542493e-18 2.7220588781395428e-21 1.1835226140156721e-17 1.394654212942627e-13 1.1080132052293243e-09 4.452974554819669e-06 3.7773696848412098e-06 2.9884037217888163e-06 1.9937074203228147e-06 1.0295620945612353e-06 6.449285347070651e-07 4.609573433527674e-06 7.486473648869409e-32 5.568826720720132e-26 1.2963013159931683e-20 2.4741995835459857e-15 3.3849771280372016e-10 2.291530049927758e-05 3.364832975848286e-08 2.4083178747228338e-11 1.1275468221338439e-14 3.1758833807287995e-17 2.3440516873241864e-17 4.866546160116795e-17 2.7430832668696434e-13 1.7158939488706242e-09 5.381136110510199e-06 3.0467885188849763e-09 2.1394516012959606e-09 1.7241291541750139e-09 1.444373121158125e-09 1.2242166234768516e-09 1.0363601469346692e-09 8.676877204929001e-10 7.108820751238037e-10 5.976366782565129e-10 8.268003324913113e-07 3.074509753255147e-05 4.49218749947938e-08 3.154572117950009e-11 1.4255134353696767e-14 1.8201761170532555e-17 1.3049154900346022e-17 2.377206982985946e-17 1.3419135877078627e-13 1.086341864207488e-09 4.452925979178411e-06 3.8354259596248846e-06 3.0718307514094674e-06 2.09859434156924e-06 1.121040605955974e-06 8.050279674823954e-07 5.429431553194368e-06 2.514828339554619e-30 2.0237302398502325e-24 1.8790668412427057e-20 3.154293518963727e-15 3.7846845190792797e-10 2.2586361087314404e-05 3.1468942374621116e-08 2.1373544324426728e-11 3.0633284821317784e-13 2.68122082969736e-13 2.3783793490439346e-13 2.081900047037853e-13 4.373870585029814e-13 1.662222887560931e-09 5.38230932514826e-06 3.258015663841526e-09 2.3175977888892456e-09 1.8808395370103826e-09 1.5888503106526125e-09 1.3590407896747806e-09 1.1605053960872413e-09 9.77804348600115e-10 8.018361502975975e-10 6.704082049589779e-10 9.468805100810332e-07 3.2568127690333165e-05 4.864159722023555e-08 3.4795837438008426e-11 1.8049379472415488e-13 1.610747277734242e-13 1.5729358893440662e-13 1.535453649786467e-13 2.7844522467757057e-13 1.063398685102864e-09 4.452885226793128e-06 3.9173533550229794e-06 3.1985899733044585e-06 2.258883206035981e-06 1.2621531794164434e-06 1.0063547528975642e-06 6.341449371770933e-06 4.553750491251956e-25 4.1115690347990566e-19 8.076915735599547e-17 1.716893880008787e-14 7.707102228489439e-09 2.103555588260605e-05 3.1960391801258326e-08 1.9229645349887497e-09 1.8256847393187126e-09 1.7305961344649122e-09 1.625995219167038e-09 1.516001704138386e-09 1.4024166597901106e-09 2.877978704533244e-09 5.384653882832452e-06 3.557343418245703e-09 2.624646053778183e-09 2.157625579719772e-09 1.8349927389353297e-09 1.5776617844894874e-09 1.3528395190285e-09 1.1432581449824581e-09 9.372740249948602e-10 7.722230594639563e-10 9.935243912763688e-07 3.352637337041869e-05 5.439831528959927e-08 1.3639611553364586e-09 1.3111515728039548e-09 1.2957208732075253e-09 1.2801566153149945e-09 1.2644653944878471e-09 1.2487060077533275e-09 2.2691904351917426e-09 4.454040793570307e-06 4.047314400171079e-06 3.405613322638641e-06 2.524206346993345e-06 1.4918932818884759e-06 1.2450004544753169e-06 7.315248856990581e-06 1.5267306043299052e-21 1.3866112513854159e-15 8.475713820625006e-14 4.52092463449001e-12 7.411837599970527e-09 4.5214377131588834e-05 5.672416946116284e-06 5.622193675236861e-06 5.623434227109757e-06 5.6247678551995625e-06 5.625973533794933e-06 5.627077316609029e-06 5.627875747045741e-06 5.628876052525354e-06 1.1003539503067645e-05 9.839306591584243e-08 8.391884496360676e-08 6.534103039635502e-08 4.9300758419528776e-08 3.600637244040964e-08 2.5218508323391675e-08 1.6592121590110705e-08 1.0089447868876232e-08 5.277071174574639e-09 8.165351295617777e-07 5.374815878239047e-05 5.358956728345393e-06 5.286139676514391e-06 5.2864660265507615e-06 5.286799805756906e-06 5.287015063386252e-06 5.287191245060179e-06 5.287349095693925e-06 5.288637735430717e-06 9.738995487208761e-06 4.370348257135706e-06 3.872403053713181e-06 2.991907616441256e-06 1.876216995743295e-06 1.5185441471163198e-06 8.295338237844353e-06 3.6108068655281074e-19 3.312746414083209e-13 7.834042598843364e-12 1.347551023882015e-10 7.1713652695062464e-09 8.537806024914256e-09 8.818094444612554e-09 9.254407535376603e-09 9.8113181336387e-09 1.686755643057202e-08 2.000905432715386e-07 2.206335819468465e-06 1.5081715777558857e-05 7.506439432843481e-05 0.0003203262058591851 0.0005741193551539191 0.00041399708383024135 0.00028438057753160824 0.00019005911676938191 0.0001249403672558117 8.013119160605655e-05 4.9701016079221034e-05 2.8805765189735088e-05 1.6757436240943985e-05 6.339452902858828e-06 6.635230079908964e-06 7.10526658815797e-06 7.662855697772277e-06 8.286494679658666e-06 8.972353703310918e-06 9.722156802499219e-06 1.0542358558485611e-05 1.1445398081024297e-05 1.2456786909829621e-05 1.3636088533889803e-05 4.0184810590811575e-05 2.3727698783253668e-05 1.2120162026635641e-05 5.026459997456012e-06 2.296478558172999e-06 9.21139288886503e-06 1.2833881743159212e-17 1.1973433145440373e-11 1.4411274804946296e-10 9.626338401730157e-10 6.659784791458118e-09 8.145121210983906e-09 8.4015353985671e-09 8.650543813006041e-09 8.91131629729995e-09 1.9804657151220406e-08 2.91972746123497e-07 3.0261076025346357e-06 1.914826777243687e-05 8.704594842512795e-05 0.0003249481887273496 0.0007801461485936841 0.0010420650284344347 0.0010471724223784652 0.0009305935329927625 0.0007705669077407405 0.0006063165484259992 0.0004546543045499463 0.0003283441370045387 0.00022053087588348437 0.00015900132289231025 0.00011614195489111252 0.00011302290683653634 0.00011600189239448596 0.00012203231795019939 0.00012951103714818518 0.00013779135387469025 0.00014635200788251299 0.00015449374695069128 0.00016046584669964986 0.00016240855303732528 0.00015060605586209434 0.00011532596550501236 6.513620579896792e-05 2.8040340288451113e-05 7.706783986372892e-06 1.0002916802993306e-05 1.344821542029445e-16 1.289091342719262e-10 7.221304675360192e-10 2.8256827795081217e-09 7.07591233035534e-09 8.169483607902608e-09 8.366177540199554e-09 8.542662387548663e-09 9.553985771049454e-09 6.543358156040801e-08 9.676446618464821e-07 7.70883622764169e-06 3.8926998561564483e-05 0.00014186072225999611 0.00040203164100207576 0.0008969745349298808 0.0014841864038047394 0.0019363446139659998 0.0021707459177863504 0.0022088829926630717 0.002098780093556717 0.0018915417954614847 0.0016304534536933065 0.0013714581504667403 0.0011541552182845703 0.0010488196637406268 0.000999880229577126 0.001018319710430185 0.0010631625176932614 0.0011221303802093385 0.001187598733774738 0.001253715771474769 0.0013116782124746262 0.0013457130054203047 0.0013203900046620857 0.00119275286286543 0.0009242254574762146 0.0005855842377345229 0.00024214142678371972 7.099608980174682e-05 1.062768707204271e-05 2.3334928130181903e-14 2.487606294352107e-08 1.2758368001693602e-07 2.5350261978168225e-07 4.100173860584765e-07 6.427461744753793e-07 1.0579542510363286e-06 1.9561938747516994e-06 5.538406200098168e-06 1.7360837777407004e-05 5.353715896098663e-05 0.00015163211159176503 0.00037979172024376007 0.0008244882757332761 0.001539568190725839 0.002492363526288048 0.003552201040395704 0.004552012346161939 0.005367295205192193 0.005940077591954671 0.0062588234546530125 0.006340139363155147 0.006230179076328144 0.006008334981573521 0.005806817663593639 0.005685712792695604 0.00573047645091325 0.0058892310558539196 0.006137743027358604 0.006432044494329397 0.006747297086862477 0.007061041521382242 0.007341849276088915 0.007529019809216222 0.007517754914077216 0.007127272646381175 0.006348190684801286 0.004571080878999813 0.0030705651639728014 0.0007499325709004612 1.1106540799260852e-05 2.9975997205437044e-11 3.45434234778469e-05 0.00020117746654741287 0.00016865284276525034 0.00020144195330789338 0.00021354991388042644 0.0002241703139000112 0.00023154565721769126 0.00023765755035626136 0.00024293360158531425 0.0002477699600631395 0.000252298102189327 0.0002565765005207956 0.0002606006239286699 0.00026426556514831944 0.0002675731472148166 0.0002705192293387613 0.00027318650716232144 0.0002756554600976685 0.00027799613493148024 0.0002801919461730178 0.0002821665263769308 0.0002837172423255256 0.0002844788318428314 0.00028404365290289813 0.0002820819486348638 0.00027856955244993914 0.0002735740820496863 0.00026736207297321974 0.00026007206689457774 0.0002517874882337451 0.00024255905907319953 0.00023234358951355313 0.0002211377037767297 0.00020855228725752365 0.00019548749393404082 0.00017414920428084828 0.00018534115547683163 0.0031004299953845847 0.0013154668136369238 1.151369850512825e-05 4.183671133872142e-11 3.296631178132936e-05 5.35092777098448e-05 6.94505263999269e-06 7.4073510514582796e-06 7.720730826557028e-06 7.893744415795915e-06 7.952329763765183e-06 7.928172592271495e-06 7.854658322635964e-06 7.749666745465926e-06 7.624069496028864e-06 7.486381196374891e-06 7.346142155993614e-06 7.213736156091479e-06 7.099538268147813e-06 7.014829761331812e-06 6.970444525660019e-06 6.9698165938100796e-06 7.009903688761871e-06 7.084858726627751e-06 7.187503283458768e-06 7.306847246298299e-06 7.423971509682164e-06 7.506136813386993e-06 7.536717033563172e-06 7.502521082611549e-06 7.420483470123461e-06 7.3044223652579914e-06 7.168427064983614e-06 7.012875132280908e-06 4.906645092124155e-06 6.418300414174525e-06 6.343728672493561e-06 6.225233074291597e-06 6.097702278925176e-06 5.943339885165817e-06 1.0864361171281907e-05 0.0031365073860210365 0.001282260520881012 1.1889030757743414e-05 4.519718142412145e-11 2.9969845721089636e-05 2.9971981675147677e-05 2.997382474395201e-05 2.9976374277940226e-05 2.99797551274002e-05 2.9984068887323847e-05 2.9989500510895923e-05 2.999628340832261e-05 3.0004695179166493e-05 3.0015015363355183e-05 3.002745231093377e-05 3.004206252269922e-05 3.0058734211419017e-05 3.0077305182991613e-05 3.0097815683261535e-05 3.012051941531246e-05 3.014597954181415e-05 3.0174893850009003e-05 3.0208049034545683e-05 3.024635509809368e-05 3.0290966577449972e-05 3.0343603273530588e-05 3.04072136389602e-05 3.0487344974435307e-05 3.059524635644309e-05 3.07540056111959e-05 3.1020358655347945e-05 3.156847609681375e-05 3.3472239458608406e-05 0.00024642154750854016 0.01185874224024939 0.003948399231378551 0.0032130420376847236 0.002836380122360239 0.002600363769626711 0.0024459899219699075 0.002344766351085708 0.002270072254527013 0.0011642641890801423 1.2317870924147624e-05 3.820639750238496e-11 2.0931662544251846e-05 2.637643126094272e-05 2.7362799646758663e-05 2.793026060782205e-05 2.827356896168627e-05 2.8506813058500353e-05 2.8672071005376786e-05 2.879146092103839e-05 2.8875863146197454e-05 2.8930004508094533e-05 2.8954337349118832e-05 2.894612168176556e-05 2.8905438998887395e-05 2.8858390214325327e-05 2.8848882367632314e-05 2.8867013905366425e-05 2.8899469996508738e-05 2.8942680954155122e-05 2.8994222776482273e-05 2.9056003668517578e-05 2.9133430127719145e-05 2.9233799993258015e-05 2.9369757412257963e-05 2.955926423093783e-05 2.980523324541479e-05 3.013330126444089e-05 3.057107011023183e-05 3.129353951700241e-05 3.3372976066929624e-05 0.00024346954042624622 0.012178270463427404 0.0039250128594871 0.0031290417355661834 0.002699057706671222 0.0024033592464867107 0.0021722257587120904 0.0019642318366677085 0.0016706102067393514 0.000877309963600259 1.285073670678694e-05 2.9986654378766635e-11 1.6190338311766736e-05 2.2072941028632748e-05 2.4580827566788492e-05 2.5747769209867086e-05 2.646901876537883e-05 2.694882193126233e-05 2.728569777457303e-05 2.7525320057895373e-05 2.7690763556694273e-05 2.7791254625734233e-05 2.7826967089690075e-05 2.7788921735404286e-05 2.767325394662648e-05 2.765964614799352e-05 2.816700662978957e-05 2.8416302425674134e-05 2.8556251771920622e-05 2.868356699666179e-05 2.8816176939056055e-05 2.8962676022068235e-05 2.912935189363535e-05 2.931517446928378e-05 2.9514235221352923e-05 2.971992186646439e-05 2.9948711638733712e-05 3.022803738876773e-05 3.064663402524302e-05 3.138117175479612e-05 3.3505074824015126e-05 0.0002376807522611542 0.012870935992420625 0.00396082342547537 0.003100473394199697 0.002626750118826671 0.002289159093196244 0.0020126043060205096 0.001743839488196042 0.001373247960031519 0.0007248088774434053 1.3582655054265698e-05 2.30694432052868e-11 1.2821089157079683e-05 1.885683019359832e-05 2.1890430280988105e-05 2.3599910770898016e-05 2.465781025605242e-05 2.537362659577774e-05 2.5878661742116258e-05 2.623999819180822e-05 2.649113754307065e-05 2.6646077033857123e-05 2.6701326406370242e-05 2.6651039392550924e-05 2.6454921220471394e-05 2.7232365990530047e-05 3.194952804872686e-05 3.041874982187437e-05 2.988526467551357e-05 2.9819346702550658e-05 2.9974054713481482e-05 3.0236262076212545e-05 3.052645944933242e-05 3.0832335202454564e-05 3.113480154941581e-05 3.124048884168459e-05 3.1251197329800194e-05 3.105897703002879e-05 3.12327055533919e-05 3.1829625066161445e-05 3.388789707295948e-05 0.00022993914889233428 0.012652592482348842 0.004061948893795293 0.003125471436649131 0.0026111338002622374 0.0022381501830204507 0.0019266112003655299 0.0016135451263980453 0.00121669743283259 0.0006350510229945073 1.4565726037022858e-05 1.8229802854203246e-11 1.0516017402058389e-05 1.62484323679689e-05 1.9552654819727818e-05 2.1576236748099354e-05 2.290419682756256e-05 2.3823465764132028e-05 2.4483639459538952e-05 2.4963499940702492e-05 2.5304774223540327e-05 2.552502265551198e-05 2.5624651116691865e-05 2.5577580258270523e-05 2.5426517297207474e-05 2.9141030080782975e-05 4.988030170544237e-05 4.036181923690705e-06 3.88544253913956e-06 3.847171854741833e-06 5.6685892122317606e-06 7.465808930292724e-06 9.255607426100757e-06 1.1558281552039695e-05 1.3489708305187278e-05 3.073863383173433e-05 3.152542621735077e-05 3.160882498975458e-05 3.1830435928092084e-05 3.242974459795168e-05 3.447226694878589e-05 0.00022029750289066205 0.01172640838375801 0.004238195116290234 0.003202517714207664 0.002645949767589091 0.002239116954216423 0.0018957540950378749 0.0015519170778145964 0.0011373354717965488 0.0005896651771254039 1.5804798631566816e-05 1.489429442219354e-11 8.81846522862595e-06 1.4157366720176209e-05 1.7515880492662776e-05 1.9724057081685745e-05 2.1241308202168622e-05 2.2325812286151794e-05 2.3122902662612273e-05 2.3716023138370002e-05 2.4151925023064155e-05 2.4453521565847255e-05 2.462287086278424e-05 2.4652949376004915e-05 2.4557532267363572e-05 3.22483804736727e-05 3.2415110697234e-05 4.947316083992315e-08 1.163254164171963e-09 1.1570890194825739e-09 2.446561280082243e-09 4.057914241893249e-09 6.059905821873912e-09 8.848242990414716e-09 1.3735533135386932e-08 4.29283693029813e-06 3.206636925483176e-05 3.218818165059811e-05 3.252394633766869e-05 3.3187991924396176e-05 3.5247850096059684e-05 0.00020836984223799183 0.010337178858640838 0.004714543089798773 0.003332163311109359 0.002728084292860975 0.0022854398866248527 0.001911884002631942 0.0015412146221104206 0.0011103280718823875 0.0005724513121558109 1.7299650746797006e-05 1.2503230033785265e-11 7.522065651412952e-06 1.2438371370426253e-05 1.5744463618811606e-05 1.80382128206899e-05 1.968156476304971e-05 2.0893757005828866e-05 2.180888071845446e-05 2.2509180841160488e-05 2.3044544673558123e-05 2.3443004226194612e-05 2.371745132191931e-05 2.3871946619004925e-05 2.3977276142436965e-05 3.546783728380153e-05 3.281955658192019e-05 4.717374275764046e-08 3.2174469648968994e-11 2.2306914145888872e-13 5.599988584073137e-13 1.1130125192657158e-12 1.9232962617474946e-12 3.3377179269796044e-12 1.0847323319509413e-09 4.26652076747255e-06 3.291310019919033e-05 3.3068141578720186e-05 3.345316839094399e-05 3.417769702877369e-05 3.624564817190675e-05 0.00019301139817011581 0.008669030432683357 0.005379121041540482 0.003589431774934939 0.0028575346906627754 0.0023743962832319357 0.001969350761576329 0.0015724700485458705 0.001121693798530451 0.0005762546057217035 1.9035620243328438e-05 1.0689428739286793e-11 6.4930975631937015e-06 1.099657280014155e-05 1.4187201399775947e-05 1.6501223682067806e-05 1.822062846917073e-05 1.9528375045482067e-05 2.0543725255301442e-05 2.1344929204649193e-05 2.1983332543266205e-05 2.2492486516046617e-05 2.2895362422299782e-05 2.321811859721123e-05 2.3572208547010062e-05 3.893825228322462e-05 3.2465320048327536e-05 4.677108155142486e-08 3.2332310839480655e-11 1.4482515031351096e-14 9.629679533908043e-17 2.0507202576007988e-16 4.036881243337671e-16 1.3287389736718824e-13 1.053726103037287e-09 4.266226313619145e-06 3.418660454936688e-05 3.4363237680668024e-05 3.477700632775319e-05 3.5517796017403976e-05 3.752432962384316e-05 0.00017347747612423176 0.006880085143294338 0.0058193736036880475 0.004030028862080313 0.0030829788767911177 0.0025137002444793983 0.002066345281683389 0.0016405033247777463 0.0011653225498689337 0.0005972855117969417 2.098743718903803e-05 9.243692784957977e-12 5.6490583206604e-06 9.759114303568386e-06 1.2798584208874052e-05 1.5087289951506235e-05 1.6844427789033272e-05 1.8220526698822707e-05 1.9319767182705617e-05 2.021491077600789e-05 2.0957672317996654e-05 2.158605977447404e-05 2.2131781154980384e-05 2.263578115693662e-05 2.324236679466257e-05 4.228673641393613e-05 3.272796623001864e-05 4.690502094418826e-08 3.27626704788482e-11 1.490467405636587e-14 5.0383188213671114e-18 3.062448766341046e-20 1.0361935859368461e-17 1.2485589660272398e-13 1.0232565434541496e-09 4.26594912261158e-06 3.617960822001117e-05 3.6361447666465746e-05 3.6749299454325415e-05 3.742413908630184e-05 3.9230021326962584e-05 0.0001500711363444258 0.005123745725717506 0.0057838164832152966 0.004514508867756841 0.0034303900533124397 0.002726490348215656 0.0022087038574245517 0.0017415251492453577 0.0012346201320427971 0.0006341097489121237 2.3118100533227872e-05 8.042594620732084e-12 4.934659298313285e-06 8.67151826151152e-06 1.1537662073071187e-05 1.3768040165752759e-05 1.55322364005456e-05 1.6953089888834388e-05 1.8120418921017643e-05 1.910104270086858e-05 1.9946035959576596e-05 2.0696602066883192e-05 2.139071628665305e-05 2.2078713306510054e-05 2.2927869060264893e-05 4.5173204825100256e-05 3.309770013418129e-05 4.732427607201979e-08 3.31110453098668e-11 1.5126000949574438e-14 5.126160524350064e-18 2.7408519764421944e-21 9.29919728272217e-18 1.1632858710439957e-13 9.863765246766268e-10 4.2655701260961185e-06 3.9635537644567446e-05 3.976718442018157e-05 3.999259999920747e-05 4.040690622995808e-05 4.174955664398385e-05 0.00012488396770255945 0.0035432883223887202 0.005211236806655934 0.004808447885268465 0.0038483559816349135 0.003030973858712786 0.00241105818664271 0.00188093539911521 0.0013307447952150234 0.000687094935821936 2.537875309463592e-05 7.0085369910727985e-12 4.311792669680629e-06 7.691852164446482e-06 1.0368671568741223e-05 1.2514437801517362e-05 1.425941635893765e-05 1.570296794526654e-05 1.692186875973628e-05 1.797676428074386e-05 1.8917397916581272e-05 1.978704304949131e-05 2.0628215544917736e-05 2.1498150280204134e-05 2.2578978008769198e-05 4.715382320995939e-05 3.360102064390001e-05 4.812087750743738e-08 3.354985441057407e-11 1.523237389605036e-14 1.81690920908367e-17 1.2557514243398417e-17 2.015471850883688e-17 1.0564133416615636e-13 9.377104832929906e-10 4.264996095262321e-06 4.722239331860339e-05 4.704855371341508e-05 4.6607058386842625e-05 4.613341660461587e-05 4.634275376797203e-05 0.0001019340567953113 0.0022508270498419313 0.0042205676912794735 0.004703687027011655 0.004183673930447512 0.0034000206657615922 0.0026870003162907507 0.0020702698128209755 0.0014586558789942425 0.0007582823256456276 2.7710020973049615e-05 6.089481939722345e-12 3.753250462765079e-06 6.787422682312253e-06 9.260897963877608e-06 1.1298561518693721e-05 1.2999534238934313e-05 1.4443385043781136e-05 1.5695061639294615e-05 1.6809072835081737e-05 1.7833086882165914e-05 1.8811363389331094e-05 1.979023335399914e-05 2.0833215107933885e-05 2.2136097529771798e-05 4.757458986950