# vtk DataFile Version 3.0
vtk output
ASCII
DATASET RECTILINEAR_GRID
DIMENSIONS 41 41 1
X_COORDINATES 41 double
0 1 2 3 4 5 6 7 8 9 10 11 12 13 14 15 16 17 18 19 20 21 22 23 24 25 26 27 28 29 30 31 32 33 34 35 36 37 38 39 40 
Y_COORDINATES 41 double
0 1 2 3 4 5 6 7 8 9 10 11 12 13 14 15 16 17 18 19 20 21 22 23 24 25 26 27 28 29 30 31 32 33 34 35 36 37 38 39 40 
Z_COORDINATES 1 double
0
POINT_DATA 1681
FIELD FieldData 1
Concentracao 1 1681 double
0.0 1.1330705137352216e-57 1.763069697891929e-51 1.8251568013814356e-45 1.008724432891967e-39 2.4393225316422284e-34 1.4271626216641964e-33 5.005355770907801e-33 1.3318277814273895e-32 2.947763340023295e-32 5.707559567016949e-32 9.966841861760474e-32 1.5980078760055055e-31 2.37353429332247e-31 3.2838040738046144e-31 4.25520053284801e-31 5.229350152085106e-31 6.198833707155871e-31 7.393558973555693e-31 1.733932318964624e-29 7.192628503147855e-27 1.2487977089525078e-24 8.957707565297148e-23 3.3321804196946553e-21 6.004261726367536e-17 1.1676227778721322e-15 4.2595602354133545e-15 8.527594743153842e-15 1.276585533180828e-14 1.653267446661929e-14 2.2174297706186848e-14 3.2124285163515023e-14 5.294633544577558e-14 1.0213504942351954e-13 2.273240816561508e-13 5.724567695127e-13 1.6565102936406657e-12 5.8280483482407e-12 2.575219772910171e-11 1.166395062265183e-10 3.820520966543995e-11 1.2104394027371808e-57 1.4163392752395407e-51 2.2038388854346093e-45 2.281447826883596e-39 1.2609065498393917e-33 3.049155575439677e-28 1.7839547042428673e-27 6.256699463373269e-27 1.6647859868972574e-26 3.6847070835199607e-26 7.134455166330752e-26 1.2458562100399175e-25 1.9975114430147579e-25 2.966920240187381e-25 4.104758376059842e-25 5.319004921260546e-25 6.536692883171381e-25 7.748548332778546e-25 9.24195611050359e-25 2.1674171326380988e-23 8.990792821563321e-21 1.560998362111931e-18 1.1197143344713614e-16 4.165228826278048e-15 7.505333162221147e-11 1.4595296399629432e-09 5.324454546733296e-09 1.0659501956537046e-08 1.595733179597181e-08 2.0665859537940185e-08 2.7717894307031265e-08 4.0155388373605536e-08 6.618297188617354e-08 1.2766891337584602e-07 2.8415532939427014e-07 7.155715343476445e-07 2.0706395104576118e-06 7.285066182468662e-06 3.2190272913574865e-05 0.00014579949909891384 4.77565501453996e-05 2.073519294897836e-51 1.9510112716282116e-45 1.8496325706099326e-39 1.5492524731424898e-33 8.3833165414377e-28 2.180605734979598e-22 9.055055928627671e-22 2.439514540992399e-21 5.241945456747126e-21 9.705130788891608e-21 1.612450299066349e-20 2.4586389733511985e-20 3.4764343220232423e-20 4.5566337134184607e-20 5.511791146825539e-20 6.135388306976075e-20 6.35476719810257e-20 6.338703804522476e-20 6.243615564344504e-20 6.223285068249452e-20 9.422344412897232e-20 6.206583733289394e-18 5.038651405855226e-16 1.119339041860555e-13 1.452787847848725e-08 9.712308442087426e-08 2.290390359359811e-07 3.8195738920815514e-07 5.250412878538182e-07 6.592440322089882e-07 8.238071268214166e-07 1.0236680701621802e-06 1.2615324361438478e-06 1.543701557314495e-06 1.918533738882506e-06 2.6534898499616475e-06 4.907119436094319e-06 1.4229718817938144e-05 6.18973868754821e-05 0.000287994038245955 9.576843716471837e-05 1.994584694737943e-45 1.8405430942708957e-39 1.3997394354515353e-33 1.0093724928880698e-27 5.419861955041172e-22 1.5632155415121957e-16 4.335431852449962e-16 8.626950242026848e-16 1.4518739273886887e-15 2.199552734533588e-15 3.089542435274972e-15 4.082319455177271e-15 5.100669598812434e-15 5.960741601298776e-15 6.4358794957047416e-15 6.070626324497776e-15 5.260601104941867e-15 4.267603497327581e-15 3.5008403922283907e-15 2.9427097180704203e-15 2.57792857696326e-15 2.4122812423323994e-15 5.522158798685947e-15 5.314801532031778e-12 7.285664213800015e-07 2.000671581798032e-06 3.4442427935152164e-06 4.660048685055391e-06 5.934787998950075e-06 7.338847041725903e-06 9.021558099056434e-06 1.0949625701070808e-05 1.2961999083445274e-05 1.4536215452808475e-05 1.5037608798315053e-05 1.4029612652459814e-05 1.4469245448352232e-05 2.4470188487816024e-05 9.236049463597286e-05 0.00043283079144668514 0.00014453974855261798 9.841847089630887e-40 9.300081426194691e-34 6.857360463240014e-28 4.874648417026609e-22 2.845124709238786e-16 1.0234035082865091e-10 1.7044294630662628e-10 2.383881377850964e-10 3.060500100423289e-10 3.726560115310453e-10 4.373286004864007e-10 4.985230249473825e-10 5.535669070311257e-10 5.952455991354631e-10 6.15610958165082e-10 5.087430422992581e-10 3.0124499009629497e-10 1.916580794942854e-10 1.2437841513305007e-10 8.536440027951858e-11 6.225242133030822e-11 4.901791650978793e-11 4.249909079069453e-11 1.6274592092434234e-10 9.916516866929708e-06 1.6183510662156615e-05 1.810269458882563e-05 2.0966723925910068e-05 2.4914597423493775e-05 3.0063828761127847e-05 3.6364131091744264e-05 4.3833307481572314e-05 5.1983215946265407e-05 5.98589726432825e-05 6.008123443894952e-05 5.582002416893688e-05 3.9895824501988415e-05 4.3695966419956486e-05 0.0001302371975984317 0.0005926427221083386 0.00019500144214818104 2.0826656542541375e-34 2.051621054629115e-28 1.604995540848051e-22 1.2463748423905555e-16 8.799633784889469e-11 4.9476904189322324e-05 3.794234672389107e-05 3.6493228227419e-05 3.485478401235541e-05 3.337100155398574e-05 3.2276469246936054e-05 3.167412609862643e-05 3.2397949805945416e-05 3.2156688022908e-05 6.0006271663377606e-05 1.9530051625228814e-09 1.1901989043147548e-09 6.951239148332352e-10 4.4928569204043355e-10 3.0763828095733275e-10 2.243874832740694e-10 1.7525788950973898e-10 1.5138551800462354e-10 1.0591218783917395e-09 6.13555167714156e-05 3.852758639344672e-05 4.1622816508486805e-06 4.5915122531359525e-06 7.271135998962188e-06 9.272098512175541e-06 1.113339815419409e-05 1.2989682877592196e-05 1.5334414729624143e-05 1.7212617297168308e-05 3.4530163135840784e-05 6.247458058179324e-05 5.7281587309225486e-05 6.452580886164816e-05 0.0001797861586166467 0.0007860756507423871 0.0002484582696752265 1.2007323733427983e-33 1.0709701414171185e-27 5.998239698410031e-22 3.103507477178758e-16 1.2815315944370313e-10 2.717330807976365e-05 7.985881942713326e-08 5.192695046629268e-08 4.8080273625655e-08 4.41606801220944e-08 4.1001594199499415e-08 3.9035807324435054e-08 3.905505900307214e-08 4.169062716062602e-08 5.44625763358656e-06 2.09126310302529e-09 1.416454404281656e-09 1.0036690203174325e-09 7.167982493525392e-10 5.287861474791322e-10 4.0386590733443974e-10 3.225541330124909e-10 2.8930201800694386e-10 1.3883215662356524e-08 0.00012715961852553906 2.646367476377256e-05 1.8605623187735747e-08 9.897644610687987e-10 2.0775580914358577e-09 3.2143000387615838e-09 4.410844145056061e-09 5.742304812640518e-09 7.415745628956776e-09 9.997876016158473e-09 4.471237350511681e-06 7.510381228046963e-05 7.235595235156133e-05 9.021829955869755e-05 0.000252699256232642 0.001033297041423328 0.00030668502001847674 4.064942870543725e-33 3.4052810783778074e-27 1.4838768806935773e-21 5.742789812402417e-16 1.7037434834590657e-10 2.6914923531989104e-05 2.8303250263260218e-08 5.0460146882310326e-11 3.2173460289738225e-11 2.841134077415837e-11 2.5235979360076555e-11 2.2960587282248785e-11 2.215839278027095e-11 1.106153392048867e-09 5.3824597698318115e-06 2.2617328195967387e-09 1.5872374658624342e-09 1.1945218818510592e-09 9.158217254575794e-10 7.121651041023945e-10 5.644225887014016e-10 4.58796437533805e-10 5.915095644179441e-10 1.1736309734593388e-07 0.00020784697739871063 2.743129129940652e-05 1.8165343272997337e-08 5.94270640487314e-12 3.2831927935984045e-13 5.826075781004288e-13 8.912107158372484e-13 1.2632462532462224e-12 1.7865263510870498e-12 5.301802630280607e-10 4.454385127367401e-06 9.445462061168455e-05 9.489064617966745e-05 0.00012850398715038945 0.0003625652872556061 0.0013581509004498035 0.0003716835897950322 1.0452593371308993e-32 8.386614955989109e-27 2.9935126509639864e-21 9.233212068302758e-16 2.1378316633776286e-10 2.6461204540870098e-05 2.7223617381607546e-08 1.3957100854425749e-11 1.888507708681836e-14 1.1881648617820972e-14 1.0002288614377048e-14 8.566981362296137e-15 1.1182876286482239e-13 1.057630743815603e-09 5.38313673158404e-06 2.4455239936923844e-09 1.7276825974860231e-09 1.3437787072545256e-09 1.0701843422141282e-09 8.620504613967326e-10 7.008411261149477e-10 5.838930189698349e-10 2.0683428066613367e-09 4.6032393179170073e-07 0.0003182251672545715 2.78205651821255e-05 1.844449612029793e-08 6.031517121094519e-12 1.3350384397411303e-15 7.446123517916323e-17 1.2265394677907714e-16 1.8590131412419177e-16 3.0773209003636624e-14 5.08384220586461e-10 4.453858578904737e-06 0.00012297897678402236 0.00012883333966662351 0.0001888510869882126 0.0005281641120480151 0.0017792724161434176 0.00044562267009947267 2.254637576209661e-32 1.7524692987176665e-26 5.303771627406938e-21 1.3581619152195885e-15 2.5658967970405335e-10 2.5287149618957913e-05 2.49886277633258e-08 1.2242786171627557e-11 4.017536470810781e-15 4.656232830518179e-18 2.8840707685633014e-18 8.55178500436296e-18 9.800275676155411e-14 1.0252151181190356e-09 5.383911026245161e-06 2.640959263696842e-09 1.859785299110945e-09 1.472420135479604e-09 1.2010596189883663e-09 9.90326558270595e-10 8.220732513033569e-10 7.720389386484965e-10 8.637562770617291e-09 1.2741568744244479e-06 0.00045369566745245366 2.8618480265379084e-05 1.8813986985467722e-08 6.211965384973204e-12 1.3593945582043261e-15 2.301577651559768e-19 1.3076233592344932e-20 1.1665295549279684e-18 2.8287150501829738e-14 4.88147381561066e-10 4.453133520087959e-06 0.00016566881244602333 0.0001814028986506577 0.00028349323502842885 0.0007684020688823962 0.0023100637890385227 0.0005305909270465157 4.3004255166782803e-32 3.26169967903409e-26 8.578690223946201e-21 1.876869112879823e-15 2.9831712172597046e-10 2.4076042836808886e-05 2.254141165652487e-08 1.0430399970903351e-11 3.1967723606463868e-15 7.389338352488429e-19 1.1812179369976212e-21 5.620666646255941e-18 9.096272133252533e-14 9.868774784299357e-10 5.3846169952934325e-06 2.8668724874897816e-09 2.020210746120621e-09 1.6278609442307507e-09 1.3672210804092565e-09 1.1811056533969428e-09 1.0894905028444674e-09 1.7061539601909948e-09 3.0789433027733236e-08 2.7905263283486345e-06 0.0006055039957771232 2.9551803304827332e-05 1.9329884061283913e-08 6.3995209115936616e-12 1.408716735104069e-15 2.321701838881991e-19 9.390660590625701e-23 1.0239589039078067e-18 2.6096940981350368e-14 4.672806102347634e-10 4.452055032222843e-06 0.000231587803610869 0.00026432946349042843 0.00042860038700790756 0.0010999790074222966 0.0029522959235311398 0.0006282713224804654 7.493624412328937e-32 5.574117899788908e-26 1.2974922573643848e-20 2.4763745888287376e-15 3.3877579865644227e-10 2.2931035827549614e-05 2.034133376397809e-08 8.798863345093776e-12 2.4893056228914606e-15 4.926298491669612e-18 3.2493609616043517e-18 7.226088423854397e-18 8.305178237963377e-14 9.41686340438084e-10 5.385297409599564e-06 5.7933121574235965e-09 5.035159320977878e-09 4.918698403994168e-09 5.134962364018732e-09 5.70616475054064e-09 6.930031770677077e-09 1.158432711390221e-08 9.245159593711416e-08 5.019463343150765e-06 0.0007538513266724892 3.0682077359702197e-05 2.0124589875830705e-08 6.6662584879756485e-12 1.4658367081259785e-15 1.3615258559060152e-18 1.0394076059441007e-18 1.8687292005352345e-18 2.3929771021843283e-14 4.4562856294091327e-10 4.450414070051002e-06 0.0003379634393718659 0.00039720521069264755 0.0006428262331381014 0.0015280522871373024 0.003688375458303833 0.0007393799966708854 2.5167061592533063e-30 2.0252848269773967e-24 1.8807565508973448e-20 3.1570193580573155e-15 3.787751822685566e-10 2.2602604765836088e-05 1.8961713243353845e-08 7.74823120901661e-12 9.487290638251427e-14 7.729703769112281e-14 6.207049151124669e-14 4.822239534907843e-14 1.1028146554922249e-13 8.876010486472705e-10 5.385960294582028e-06 1.6738285687601367e-07 1.673539875461297e-07 1.6696345752635977e-07 1.6606373053787746e-07 1.6395964395111188e-07 1.6004026126490785e-07 1.6025362592682003e-07 3.066638102114996e-07 7.54738721161158e-06 0.0008619974975608136 3.248914062965291e-05 2.1499555480772937e-08 7.174951104967402e-12 3.241675857422826e-14 2.929488720761528e-14 2.7759465149784663e-14 2.6259757629661624e-14 4.652595769595858e-14 4.225921435360182e-10 4.447719189817111e-06 0.000521810030449222 0.0006148984939785937 0.0009439552243656271 0.002031119985289029 0.004469689100587749 0.000862737062077792 4.556194458400865e-25 4.113776140769268e-19 8.081254377198347e-17 1.7178161930580312e-14 7.710676925813408e-09 2.104493629779707e-05 1.9166339004081604e-08 1.1027694247684344e-09 1.0169131513319646e-09 9.214852851882009e-10 8.166477780756126e-10 7.069275278847026e-10 5.951100552148961e-10 1.3022433936709244e-09 5.386907891047648e-06 6.484137072837892e-06 6.196032270587402e-06 5.67864280593829e-06 5.033164980411791e-06 4.320052697562589e-06 3.5487260403357567e-06 2.751245827240232e-06 2.176524806830449e-06 1.0064928944750931e-05 0.0009042317021301826 3.3437252725308303e-05 2.3858679977518736e-08 5.73685041274106e-10 5.508746285113457e-10 5.354848655199837e-10 5.199732660188304e-10 5.043563714019441e-10 4.885883272078583e-10 8.686550351148109e-10 4.442925640496021e-06 0.0008878027634714865 0.0009969976658901136 0.0013515509180455046 0.0025512225382926766 0.005209403253651475 0.0009941725102946479 1.5274598274677496e-21 1.3872735429857568e-15 8.479762001323575e-14 4.523083696207404e-12 7.41537564492186e-09 4.529297789388175e-05 5.6587971637961025e-06 5.628697469991949e-06 5.62943664523178e-06 5.629744271811047e-06 5.6255049123444966e-06 5.601291141248027e-06 5.521209575921326e-06 5.325470997349553e-06 1.0298030758870154e-05 0.0002138696232950349 0.00019145810043253892 0.0001562540776631234 0.00012402789628246366 9.564358076188753e-05 7.0925466591544e-05 4.9447935062151876e-05 3.201619567845889e-05 2.555547996669121e-05 0.0007500074795048653 5.3678392349408845e-05 5.30156500656465e-06 5.266669201268784e-06 5.263636632766831e-06 5.260041052742804e-06 5.2557667984451325e-06 5.250737459772202e-06 5.244796260177853e-06 5.238069447789607e-06 9.652819523800611e-06 0.0020717845622733235 0.00197610749491167 0.002018822207071126 0.003057136826802223 0.005806320714601728 0.001126175234514283 3.612530441404341e-19 3.314327717841043e-13 7.83778212131262e-12 1.3481942706450152e-10 7.174788483621309e-09 8.543604821483017e-09 8.823239171852423e-09 1.0754186874491219e-08 8.791369185951961e-07 2.8218005085728805e-05 0.00026444823357435357 0.0012673505188433231 0.003977715451635498 0.009316786890605576 0.01763942039224241 0.016737050634449448 0.009541442724352958 0.005740582200855457 0.0035517562978422193 0.0022529105176804115 0.0014413392169077312 0.0009150461066194342 0.0005537865829310974 0.000343767511397871 0.0006842736407526235 0.0007466667434041323 0.0008424842541044772 0.0009640923878802497 0.00110995883775102 0.0012821363566882498 0.0014841629683753892 0.0017212791878005512 0.0020013098055217072 0.0023378593274100373 0.002759968858875967 0.003550378857045235 0.003433453693462283 0.003124043162479297 0.0036501944832170938 0.00620092949655545 0.0012493095794228288 1.2840079669631936e-17 1.1979203190795996e-11 1.4418179085551248e-10 9.630940323658205e-10 6.662965253783317e-09 8.150375769106578e-09 8.406799182636436e-09 1.1791490418348643e-08 1.5216933721788807e-06 4.3018323570855345e-05 0.0003643389881819406 0.001614524976530936 0.0047459320084817635 0.010461819728861723 0.018588317883006904 0.024573706294160457 0.023229257916074882 0.018793802320206457 0.014390411251327052 0.010739642500760064 0.0078801204161737 0.005661435025777347 0.003995973401497247 0.002672709131836837 0.002120423809224901 0.0017756462578555202 0.0018118143179282212 0.001924778265553188 0.0020861525747579344 0.0022844374775447167 0.002518002504458294 0.002788074414177491 0.0030968810907717596 0.003443528703390041 0.003836042581951157 0.0042791193796712194 0.00451147069751042 0.004266915648480062 0.004353203700880508 0.006446946545712176 0.0013555241001353417 1.5784259578988706e-16 1.4972676207830437e-10 8.119664143062628e-10 3.074170733683328e-09 7.603753630278495e-09 9.221157923946206e-09 1.0862740916964508e-08 9.660907916564886e-08 9.551189129225733e-06 0.00014556237632109314 0.0008710108604182842 0.0030455746050603756 0.007467691153446838 0.01414488098144125 0.021918324659384196 0.028636006461224505 0.03174428139078847 0.03109952330024972 0.02828260571571965 0.024630437186760747 0.020849151915294645 0.017273361419755495 0.01403022829078437 0.011316252915888747 0.009285700644103041 0.008251826225125916 0.007703800301995561 0.007643232843750169 0.00776807471561979 0.007994552168128145 0.008278237677863091 0.008592568436028262 0.00890265625410604 0.00914841779634173 0.009193264027412596 0.008891938515628167 0.0080847052767868 0.006876588246145036 0.005676763179505091 0.0066920771336447275 0.0014392378744790915 4.059153867720106e-12 4.338764844111767e-06 2.2360775690245634e-05 4.4573867142355135e-05 7.241060809427762e-05 0.00011431949931962062 0.00018933607606388107 0.00035209418466493765 0.0009490809581014814 0.002512142264408684 0.00574940481321924 0.011034190403506597 0.017898477334080124 0.02502378208935407 0.030922887217731256 0.03476749460775388 0.036468516447052055 0.036375108391959454 0.03504263441405934 0.032998905477953755 0.030613443209269512 0.028102026085486783 0.02560514692203814 0.02326531102931122 0.021341721139303153 0.019903446149535126 0.01904601914043628 0.018543513221834385 0.018275654725410147 0.018116893698624396 0.018011194788599628 0.017924500674612872 0.01782391037332149 0.017652360378898634 0.017312026779616945 0.016603888690116333 0.015470709920827518 0.012873457980347254 0.010475626220140519 0.007828351457505732 0.0015032226552056387 3.527492955514769e-11 3.839218704797872e-05 0.00020233385874308447 0.0001693470923625529 0.00020244697502707438 0.000214639976699769 0.00022529509251494826 0.00023256538557600193 0.00023801945082536756 0.00024125763201406376 0.00024114506206245788 0.0002359331432229944 0.00022437990605026967 0.00020684461017840374 0.0001855896989585279 0.00016391130542833224 0.00014508992309029647 0.0001315770130882542 0.00012424156114090794 0.0001226987447198733 0.00012603892829079005 0.00013322158422809325 0.00014291966529126574 0.00015331210444627732 0.0001616618521987553 0.00016679256392368365 0.00016745043607716605 0.0001650194354480167 0.00016038896693313493 0.00015456147625994137 0.00014805347337611228 0.00014122704215574467 0.00013440308944979765 0.0001281293385506642 0.00012295903197222664 0.00012060186717015489 0.00011506480956414139 0.0001394431930742135 0.010606040181279384 0.008696231699317424 0.0015575059744252382 4.760786015223574e-11 3.67365385331678e-05 5.331705587470468e-05 6.188641984566919e-06 6.435730365022469e-06 6.586576371905263e-06 6.640133557384391e-06 6.607007622604043e-06 6.5078187095305134e-06 6.370557674048232e-06 6.211299336043319e-06 6.042528977046032e-06 5.876096165237735e-06 5.723701414131903e-06 5.594539114984519e-06 5.493163490904591e-06 5.422457624653027e-06 5.384655417289436e-06 5.3782111269420365e-06 5.398765150657706e-06 5.441789729968709e-06 5.503311232879346e-06 5.577868177428548e-06 5.655393779911618e-06 5.71582512934157e-06 5.749489261161823e-06 5.7479068708200696e-06 5.722344318669705e-06 5.678512122857182e-06 5.5974806856453725e-06 5.039811606056963e-06 1.3016516940182854e-06 3.592796945683669e-06 4.2022145722050016e-06 4.389306754594807e-06 4.461850457311671e-06 4.486519195120065e-06 8.639201931819481e-06 0.010768922349637628 0.008658547227880833 0.0016075143707083629 5.097434156608979e-11 3.347682874657291e-05 3.3576418879800744e-05 3.3769998559491125e-05 3.407491576048885e-05 3.4506511615488017e-05 3.509347805464292e-05 3.5873172152849214e-05 3.6893043360560606e-05 3.8207624969796314e-05 3.987111058471222e-05 4.1923685897961405e-05 4.4376594995935994e-05 4.720894988801525e-05 5.0388723569471605e-05 5.391778676462146e-05 5.783433479286588e-05 6.22299722692515e-05 6.721950460459278e-05 7.293426020425627e-05 7.952981538199897e-05 8.721119717126677e-05 9.629725649011321e-05 0.0001073593807018344 0.00012153807072776676 0.00014140594582815708 0.00017366160648759054 0.00024416422041066043 0.000514109910284592 0.0024095846318838874 0.015900510301093056 0.01658179964047486 0.031834722329292076 0.02161270174072537 0.015562122760186372 0.012585376417035232 0.011025310982905717 0.010158079116902075 0.009722638123704197 0.008166981761352375 0.0016646212729072277 4.3028173964377523e-11 2.3454402742740144e-05 2.9654997466658377e-05 3.094011462420879e-05 3.1871137738854095e-05 3.267755793758593e-05 3.3517485749661886e-05 3.447543453215343e-05 3.5624693961553474e-05 3.703395392726209e-05 3.876647729053604e-05 4.0868326994268606e-05 4.33711749538048e-05 4.6296682903648607e-05 5.138510739461962e-05 5.807724221519708e-05 6.522577843468759e-05 7.259654133409166e-05 8.018643129794206e-05 8.836566016692839e-05 9.747888194411726e-05 0.00010793059586205438 0.00011990842475938422 0.00013365061518987487 0.00014981357533618128 0.00017056451262240484 0.00020316327965874995 0.0002740247711821982 0.000547493883847646 0.0024563679809894647 0.015818992473092874 0.015733908011510346 0.032230903287320596 0.02193026468781884 0.01564785814753737 0.012467890563826384 0.010706511022369936 0.009585475550343215 0.008667216563937381 0.006696294991771776 0.0017355529825892535 3.383965891411037e-11 1.8233835554921872e-05 2.4962968905364736e-05 2.7973936992065942e-05 2.9581935817326266e-05 3.082135500511805e-05 3.195038017928783e-05 3.3121591435774274e-05 3.443962896493632e-05 3.5996610012264144e-05 3.7878651916930126e-05 4.0163697607084995e-05 4.2960831073280915e-05 4.663067014227496e-05 7.677403530734817e-05 9.96841400574746e-05 0.00011995236308845761 0.00013758045851589506 0.00015581179947351574 0.00017559721850465889 0.0001974868537706297 0.00022153542175117283 0.0002468807476787584 0.0002700660175982383 0.0002867614880225718 0.000293642211887277 0.0003084776113616223 0.00036055738040554204 0.0006262560744272723 0.0025519066404487293 0.015603077354945986 0.013861204934658982 0.03318035864928868 0.022845487966354203 0.016184863388513982 0.012729173346860224 0.010743116760768848 0.009407054861651989 0.008106026849178266 0.006041272903027787 0.0018328708039798915 2.6185700245565527e-11 1.4546642701103818e-05 2.1501713859729998e-05 2.5142621673593593e-05 2.7390131963422734e-05 2.9034909398116087e-05 3.046313694666276e-05 3.187020517578898e-05 3.339548653018758e-05 3.516138955367258e-05 3.729627116440231e-05 3.9949072459211035e-05 4.345085824301292e-05 4.969502644130455e-05 0.00022557643109851093 0.0002061587102962509 0.00021555104524503547 0.00023526596220004766 0.0002625817360420027 0.0002961039740719118 0.0003353266302945993 0.00037900288807935693 0.00042562482493463334 0.00047238290828572325 0.0004922966928331401 0.0004935889922358255 0.00045373879721894973 0.0004828502401804212 0.0007460999120851201 0.00270846847762653 0.015314013754055873 0.012772969004113288 0.03459231221186343 0.024384932407997505 0.01719936234848813 0.013361093010075493 0.01111177864515744 0.009515923429676224 0.00797285241830992 0.005780906337273525 0.0019633421295170545 2.0897032498142818e-11 1.205638114409436e-05 1.874018686587522e-05 2.274222583423568e-05 2.539372477965469e-05 2.7393569770703925e-05 2.9110563694245e-05 3.077147539798942e-05 3.254473657282768e-05 3.459167040175339e-05 3.710576235559385e-05 4.0383729569610965e-05 4.5193783294521997e-05 5.7347011760353994e-05 0.0007161851240682225 4.97640368407397e-05 4.005619155788447e-06 3.876909735958437e-06 3.8372456740718095e-06 5.653983282045536e-06 7.444653010133323e-06 9.226804704004889e-06 1.1519721200972638e-05 1.3439100735772318e-05 3.065348388977013e-05 0.0005356055909289136 0.000545224454445693 0.0005944802883961841 0.0008919872801928826 0.0029416591416078467 0.014969742873534843 0.012505780964453893 0.03627255952430561 0.02657673306469806 0.018722926526766298 0.01438070949262704 0.011792181826730419 0.009932845610865852 0.00815656819159553 0.005836177071101276 0.00212737480329275 1.7319219476058934e-11 1.0256712222736117e-05 1.6584764774549623e-05 2.0724282056054162e-05 2.3656875713155526e-05 2.59474991716396e-05 2.7942080869870328e-05 2.9876057206114682e-05 3.1945275903468325e-05 3.4358435838039736e-05 3.740461658798638e-05 4.160579355970836e-05 4.839561210942819e-05 7.377160033534813e-05 0.0012944516792191595 3.22062624028957e-05 2.3474715132092484e-08 5.814691894181312e-10 5.791025454877549e-10 1.2090493381152055e-09 1.9784010924987648e-09 2.9136553189793794e-09 4.194921359727103e-09 6.394759715751058e-09 4.2619204675186514e-06 0.0006198234704825873 0.0006397510136603926 0.0007227830849337891 0.0010863089432626787 0.0032530609104764476 0.014563557669663756 0.012851072209443726 0.03649828294638434 0.029438977920556 0.020810810717836685 0.015814093072439906 0.012802358037315687 0.010641060144141184 0.008625834331014711 0.00612337518263681 0.0023246395496437865 1.4828806032210992e-11 8.923037761350744e-06 1.4883087344708118e-05 1.906361802525269e-05 2.2193018403022032e-05 2.4735285685529395e-05 2.7003898394629267e-05 2.923848504200929e-05 3.16618032250404e-05 3.453972967885538e-05 3.8282741518263476e-05 4.372199477333082e-05 5.331699107771587e-05 9.785378650057983e-05 0.001841005726243415 3.251735400660186e-05 2.1467673256849717e-08 7.182621869543113e-12 5.5564241449204213e-14 1.4113339447550224e-13 2.736552332590241e-13 4.610267555348722e-13 7.74721750414233e-13 4.676982632742094e-10 4.245960412533513e-06 0.0007561089902423872 0.0007888398106251252 0.0009051224587214457 0.001355807841682323 0.0036460425114656137 0.014044694755905631 0.013572630182257918 0.034309089500239275 0.0323938395036416 0.023539759571409188 0.017711335617138398 0.014161734749838702 0.011642797764881361 0.009355003222957618 0.006612937338049627 0.002552854427068502 1.3025543138708773e-11 7.913448577981454e-06 1.3543779320708295e-05 1.7724861850687935e-05 2.101221918568371e-05 2.3790274509497037e-05 2.634534510868244e-05 2.8920609852847598e-05 3.176794471567105e-05 3.5217526416824247e-05 3.981902431989901e-05 4.67489764636879e-05 5.985422756689093e-05 0.00012922647172513527 0.0024038211869892344 3.2070199108820146e-05 2.0583464703190423e-08 6.822753194907165e-12 1.5284565803125075e-15 1.2260792733757673e-17 2.597663429891815e-17 4.895348348069281e-17 2.4729850110776283e-14 4.4077911898187737e-10 4.240010408190104e-06 0.0009758643877971055 0.0010268252849438251 0.0011890599911612634 0.001742086635490305 0.0041079167324406946 0.013379946137828686 0.014405309495687026 0.0309497347295689 0.03405324320488888 0.0269247678401392 0.0202776596222704 0.01594172150329091 0.012947401163317938 0.010337184255809942 0.007292494218649072 0.0028083322376816432 1.1692670622462068e-11 7.146676939705519e-06 1.2506992846609968e-05 1.668988595569727e-05 2.0130266474615294e-05 2.3154193924576066e-05 2.602742759861235e-05 2.8999097422822354e-05 3.235137645274945e-05 3.648030101170279e-05 4.207496774144576e-05 5.066510250289432e-05 6.772549392882993e-05 0.0001682561879453339 0.0029359513581241237 3.223843564516e-05 2.0107317984812697e-08 6.624089509042569e-12 1.4865238589266518e-15 2.5589325598972195e-19 1.9596232684608077e-21 8.162703150731872e-19 2.1715044290934193e-14 4.105807280447124e-10 4.230260414893204e-06 0.0013681425997519006 0.0014482106335478504 0.0016665695644370042 0.0023151118488324357 0.004650837613933404 0.012589544830889011 0.015075959027670454 0.027436623521376515 0.03387886063100665 0.030034269310008854 0.023488279739581557 0.01829787037018109 0.014618040536241031 0.011554955097489479 0.008123531442920055 0.003085883793973413 1.0718558413891548e-11 6.577333763540009e-06 1.174480636191292e-05 1.59631145867823e-05 1.9583792902569613e-05 2.2891216394117338e-05 2.613765831141264e-05 2.957957372127453e-05 3.352729287366817e-05 3.843439182678386e-05 4.5110146261546616e-05 5.5412488835986464e-05 7.66667482632455e-05 0.0002102211613701261 0.003398534086602894 3.252280648711963e-05 1.9857632407180934e-08 6.464224143074607e-12 1.4406338339949561e-15 2.4604315309237945e-19 8.072676859301401e-23 6.528857070306797e-19 1.848087132895081e-14 3.741816108281435e-10 4.211232089028463e-06 0.0022044841787814532 0.00232172055630426 0.0025788996851438153 0.0032554551627024648 0.0053823574912530234 0.01181729600374046 0.015389176293534092 0.024380721744414604 0.0321218697441673 0.031951956561005156 0.026821009484722238 0.021196449935675835 0.016715182196047198 0.013033230633323468 0.009102690898203288 0.0033788609366351284 1.0058524160777397e-11 6.1888913680207694e-06 1.1262976668154254e-05 1.558467428912452e-05 1.944903629969705e-05 2.311189707272365e-05 2.6816885619502828e-05 3.0826699700673363e-05 3.547108802619149e-05 4.1240864365698745e-05 4.902502673575312e-05 6.0948094683787896e-05 8.614352957162033e-05 0.0002482577130766439 0.0037323388525712245 3.295991153249794e-05 1.9880671459868966e-08 6.382479197878612e-12 1.4012585875297739e-15 1.2694540530987604e-18 9.501682423671526e-19 1.3553441739174262e-18 1.475434721325243e-14 3.2671837886725453e-10 4.160344113274225e-06 0.0044660165971221995 0.004564765099610501 0.004699505795839099 0.005150842494135799 0.006736484911165716 0.0114726641682199 0.015411915380619626 0.022025942466380143 0.029491735608863454 0.03225283618692942 0.029539715449253257 0.024358617201846636 0.01924719533375749 0.0148114902216727 0.010240385503756397 0.0036793885004497173 9.726170969918082e-12 5.995346106423043e-06 1.1114873116938606e-05 1.5657476289022368e-05 1.988129139632769e-05 2.4023759966835986e-05 2.832261685157765e-05 3.3041847071574936e-05 3.851546112566725e-05 4.5239571093569e-05 5.412062242919051e-05 6.741794168341105e-05 9.546471520000974e-05 0.0002739957859079687 0.0038486965357917183 3.399756254882005e-05 2.0403172201460125e-08 6.4986649661467264e-12 3.0402100781805115e-14 2.7337916467921432e-14 2.570154520031886e-14 2.41221356612406e-14 3.254707485324704e-14 2.516083366651071e-10 3.924848903268096e-06 0.01230301638691844 0.011881212108217517 0.010987200725485992 0.01020223409691606 0.010308327