# vtk DataFile Version 3.0
vtk output
ASCII
DATASET RECTILINEAR_GRID
DIMENSIONS 41 41 1
X_COORDINATES 41 double
0 1 2 3 4 5 6 7 8 9 10 11 12 13 14 15 16 17 18 19 20 21 22 23 24 25 26 27 28 29 30 31 32 33 34 35 36 37 38 39 40 
Y_COORDINATES 41 double
0 1 2 3 4 5 6 7 8 9 10 11 12 13 14 15 16 17 18 19 20 21 22 23 24 25 26 27 28 29 30 31 32 33 34 35 36 37 38 39 40 
Z_COORDINATES 1 double
0
POINT_DATA 1681
FIELD FieldData 1
Concentracao 1 1681 double
0.0 1.1318440332482312e-57 1.7611612817608704e-51 1.8231811804838555e-45 1.0076325510212091e-39 2.436682119863067e-34 1.425734207627827e-33 5.000558158754425e-33 1.3305859987559062e-32 2.945068720255576e-32 5.702421541944756e-32 9.957980877517872e-32 1.5966017201119242e-31 2.3714640961064895e-31 3.280954806389721e-31 4.251516527851016e-31 5.224823908223176e-31 6.1933357602698445e-31 7.214067612455956e-31 8.37011567858351e-31 9.769257573980606e-31 1.1547312739001408e-30 1.2498461248682696e-29 1.880594255864798e-24 2.996982031679763e-19 1.1014866476705654e-16 4.0827301684820365e-16 7.098887134430517e-16 8.695080401092308e-16 8.853125518209504e-16 9.002111381849435e-16 9.124908783708638e-16 9.179973172946731e-16 9.100631729134363e-16 8.830223280804354e-16 8.335565449868404e-16 7.708251060749545e-16 7.13351948527957e-16 1.1794462321282725e-15 7.154486922138792e-14 8.329432187312437e-13 1.2091291749073738e-57 1.4148061734043223e-51 2.20145336336237e-45 2.2789782987859998e-39 1.2595416964090624e-33 3.0458550581060936e-28 1.7821691852689916e-27 6.2507024436289455e-27 1.6632337573829866e-26 3.681338806151592e-26 7.128032629852487e-26 1.2447485861407097e-25 1.9957537467416254e-25 2.964332491597208e-25 4.1011967889419577e-25 5.314399911330297e-25 6.531035073849132e-25 7.741675893673066e-25 9.017591729637558e-25 1.0462652968345066e-24 1.2211581736733332e-24 1.4434152259532166e-24 1.5623088962182044e-23 2.3507446832001848e-18 3.746230536581735e-13 1.3768594110748545e-10 5.103416786533565e-10 8.873616016925281e-10 1.0868859104737143e-09 1.106641570911448e-09 1.1252648229423177e-09 1.1406145046293445e-09 1.1474975582459049e-09 1.1375798714058068e-09 1.1037787931228724e-09 1.0419465147900955e-09 9.635321473213317e-10 8.916906391121304e-10 1.4743089696065729e-09 8.943115787302686e-08 1.0411798532699172e-06 2.071274836115654e-51 1.948899420456802e-45 1.8476304561092112e-39 1.5475755024521322e-33 8.374242122116802e-28 2.178245367960362e-22 9.046127474158689e-22 2.437213929477077e-21 5.237135276478327e-21 9.696398889326368e-21 1.611021862232367e-20 2.4564884960305826e-20 3.473424666457568e-20 4.552724905693705e-20 5.507063168664889e-20 6.130106194444934e-20 6.349271606709401e-20 6.333196786519774e-20 6.23816051987247e-20 6.211666857666275e-20 6.331732334851897e-20 6.679149505625466e-20 7.634523725661909e-20 4.688073081607358e-16 7.244137330785231e-11 1.210507035801537e-08 3.0064518987578295e-08 4.4370044277660226e-08 5.0562232693676806e-08 5.11369220481242e-08 5.136776228747899e-08 5.1043263266388206e-08 4.967809809688549e-08 4.65654909617855e-08 4.101550913447435e-08 3.369229009960014e-08 2.5127005315855822e-08 1.728804787936998e-08 1.1930023504422165e-08 1.8339611905720058e-07 2.08855467480216e-06 1.9924256791923063e-45 1.8385508193992903e-39 1.3982243037126307e-33 1.0082799097073376e-27 5.413995293867085e-22 1.5615234605478582e-16 4.3312611918627657e-16 8.618997420776576e-16 1.4505700621572833e-15 2.197616204599544e-15 3.086865721542606e-15 4.078829399419205e-15 5.096350714936756e-15 5.955747336496835e-15 6.430359527869793e-15 6.06533254808011e-15 5.255968818350522e-15 4.263816797029916e-15 3.497714391995843e-15 2.940067816625792e-15 2.575494651893478e-15 2.382362651500499e-15 2.3674742689512463e-15 2.826676661616298e-14 3.6295880893794103e-09 3.711567403463124e-07 6.85283796883378e-07 8.10855336736619e-07 8.626834522155175e-07 8.683831700653227e-07 8.672317191532024e-07 8.552404611191276e-07 8.247440201431605e-07 7.567570730143748e-07 6.387735915683586e-07 4.567541724805425e-07 3.0042457070290727e-07 1.6542930415017792e-07 7.963043647410353e-08 2.996596391899757e-07 3.153150757566796e-06 9.83119390555198e-40 9.290014669660578e-34 6.849937799911869e-28 4.8693719166126605e-22 2.8420450420610324e-16 1.0222957398526491e-10 1.702869939654856e-10 2.381758749742809e-10 3.0578414422605276e-10 3.723392460474703e-10 4.369634689997183e-10 4.981126896032948e-10 5.531132545819527e-10 5.947672854970162e-10 6.150303757511651e-10 5.082632439078116e-10 3.0096088252836947e-10 1.9147732331312675e-10 1.2426111065216e-10 8.528389016616325e-11 6.219370776894066e-11 4.897149208634465e-11 4.242147039763212e-11 4.4470125730145784e-11 4.937994938538802e-08 6.231634201428387e-06 6.158188202852987e-06 6.1452453275054625e-06 6.172202556165009e-06 6.193709457843351e-06 6.18538296224614e-06 6.1328275011554726e-06 5.986531993170934e-06 5.718136715202889e-06 4.814951445432008e-06 3.839631005496731e-06 1.949427409062986e-06 9.170915128900139e-07 3.4981077953423395e-07 4.761299054820254e-07 4.255354657911721e-06 2.0804113045864413e-34 2.049400308420437e-28 1.6032582371985468e-22 1.2450257222732158e-16 8.790108751513411e-11 4.9423348668659047e-05 3.7913532692307204e-05 3.6462378655317744e-05 3.4826677856381135e-05 3.334511781888582e-05 3.225201638043402e-05 3.1650382494426855e-05 3.2372222691418516e-05 3.2135049533742535e-05 5.9908575051915926e-05 1.9501739399329312e-09 1.1885439731433434e-09 6.941998744330476e-10 4.4870913584721577e-10 3.0725479622370976e-10 2.2411417580523828e-10 1.7504599378194126e-10 1.5040081638839164e-10 1.4604241972946176e-10 3.0506415799238576e-07 3.849385904561908e-05 4.173586790653483e-06 4.591682561865746e-06 7.270060261270869e-06 9.270889335807435e-06 1.1131877847183971e-05 1.2987846465954526e-05 1.533167222745898e-05 1.7211161857898698e-05 3.450281261092897e-05 3.871465517872881e-06 2.770646318235811e-06 1.4659485354489033e-06 6.327499690468242e-07 7.022373785598953e-07 5.423788035780044e-06 1.1995993559664079e-33 1.069968906165598e-27 5.992822974178187e-22 3.100874586323251e-16 1.2805994222770475e-10 2.716819216389476e-05 1.1893046369043551e-07 7.763731240524549e-08 7.21191514456134e-08 6.646443525918801e-08 6.19196573623527e-08 5.915076833180985e-08 5.9375276353726096e-08 6.360862452855037e-08 5.475119760773248e-06 2.0891645668587363e-09 1.4146880438451658e-09 1.0023846688156289e-09 7.158801448061684e-10 5.281136985819807e-10 4.0335718961015416e-10 3.2211590040256875e-10 2.728125976930192e-10 2.654353987246679e-10 6.316816982018915e-07 2.646072360837365e-05 3.2690619218713415e-08 1.694499579668482e-09 3.5843909705825455e-09 5.616625446909471e-09 7.80975018009574e-09 1.0305766011522237e-08 1.3490797169914554e-08 1.8465674187510195e-08 4.484361094612955e-06 3.928616786897018e-06 2.973174880664469e-06 1.8130575080725336e-06 8.502200061941184e-07 9.794740096805232e-07 6.6974590737298145e-06 4.061427206321536e-33 3.402364479362804e-27 1.4826559061256858e-21 5.738339309771983e-16 1.7025457901809398e-10 2.689759586892947e-05 4.226594021034559e-08 1.1271755161037844e-10 7.242792411327486e-11 6.438207136956542e-11 5.757126031525661e-11 5.2732281179815036e-11 5.123616116154117e-11 1.7363890316106589e-09 5.377664444141628e-06 2.2594823709040387e-09 1.5853732448110915e-09 1.193047861759812e-09 9.146720064389463e-10 7.112665074202393e-10 5.637091188402478e-10 4.576108943054166e-10 3.83893335605897e-10 3.6179986152979194e-10 1.03094746912657e-06 2.743493294466486e-05 3.279414563847639e-08 1.8809777717292274e-11 9.690889330968205e-13 1.7558604464684336e-12 2.753282440360174e-12 4.0027887199050955e-12 5.819339981769924e-12 1.03408186754147e-09 4.4537160055422414e-06 4.011174327769812e-06 3.122592063346424e-06 2.0130708485845107e-06 1.0172663955203024e-06 1.3341126328950217e-06 8.120509831478869e-06 1.0444059694520556e-32 8.379825145894206e-27 2.9911809918924357e-21 9.226386635443303e-16 2.1363631474992058e-10 2.644447806145395e-05 4.0738190076966236e-08 3.128395850743425e-11 6.36563530810988e-14 4.052453047771309e-14 3.4454149677046144e-14 2.980746999103531e-14 2.830682596146305e-13 1.659277029040992e-09 5.378684656288721e-06 2.4431214537195477e-09 1.7257301814331044e-09 1.3421706550037923e-09 1.068869097602221e-09 8.609761409707776e-10 6.999009750121142e-10 5.746060935845018e-10 4.773610038922682e-10 4.507259082518117e-10 1.5786562144385833e-06 2.7836447041719546e-05 3.407937397575124e-08 1.9924684258957912e-11 7.689671994270292e-15 3.839295024056423e-16 6.533157139721148e-16 1.0281993458755537e-15 1.1685136548911994e-13 1.0068222634789601e-09 4.453697250882341e-06 4.122520432159255e-06 3.2628354585722097e-06 2.1778204551097025e-06 1.159044332558436e-06 1.8090184445373314e-06 9.740967186396705e-06 2.2528701505581724e-32 1.7511051736059668e-26 5.299790997201894e-21 1.3571899492092291e-15 2.564179916625789e-10 2.5272288018673796e-05 3.7496299479101866e-08 2.757431928313164e-11 1.3585676909638029e-14 2.3829337437985527e-17 1.499424662065504e-17 3.694366635709456e-17 2.4643695119271994e-13 1.6270568476845238e-09 5.379885822775893e-06 2.638339189719026e-09 1.8576624419802246e-09 1.4705853457578499e-09 1.1994006601876125e-09 9.885710221164804e-10 8.178835160594645e-10 6.766991164466901e-10 5.582013253572152e-10 5.448929335959512e-10 2.2537834270689913e-06 2.8649841222366298e-05 3.5524477137188385e-08 2.1313843034375552e-11 8.276123967427765e-15 2.4285722011118877e-18 1.192832590814973e-19 8.607101455368063e-18 1.1083545552541667e-13 9.865764306545415e-10 4.4537119970273545e-06 4.270057965886344e-06 3.424242939223053e-06 2.346561082964333e-06 1.3073031573372708e-06 2.4562267104573664e-06 1.1605414898283019e-05 4.297155528317094e-32 3.2592344023592143e-26 8.572427609935206e-21 1.875559381885466e-15 2.981222706480526e-10 2.4062553130430006e-05 3.391763570896101e-08 2.3620644053837462e-11 1.089190596840638e-14 3.789345890177849e-18 9.004164543707475e-21 2.3249592066838752e-17 2.351209319702967e-13 1.5889302631597199e-09 5.380988221634748e-06 2.8405629907600415e-09 1.9918453563308695e-09 1.5935659126079262e-09 1.3202760918414993e-09 1.1058120613541517e-09 9.26668442241561e-10 7.714060003626479e-10 6.334085266387258e-10 6.548552554220374e-10 3.0144538543093866e-06 2.960166077999998e-05 3.7227018253720294e-08 2.2726883045531762e-11 8.986692278981426e-15 2.6101347028331087e-18 1.5435805589195878e-21 7.916331425184456e-18 1.063079089130895e-13 9.65696464264318e-10 4.45368006950346e-06 4.465516901950341e-06 3.628550257350263e-06 2.5505525545221507e-06 1.4890431473345896e-06 3.325139656627026e-06 1.3751908954515104e-05 7.488062067778695e-32 5.570002066972246e-26 1.2965658663946217e-20 2.474682735934615e-15 3.38559487629139e-10 2.2918796215176026e-05 3.069275004480854e-08 2.0036073572660005e-11 8.555419075925328e-15 2.284071657465681e-17 1.6633135465893835e-17 3.4826623029642655e-17 2.2218405717047253e-13 1.5439494558712867e-09 5.382060540250003e-06 3.047595174977389e-09 2.1400909055451207e-09 1.7246798029203932e-09 1.4448546420320885e-09 1.2246375553596085e-09 1.0367253982291486e-09 8.680004046523793e-10 7.11177946715347e-10 7.839838927441704e-10 3.7619127713085967e-06 3.075150968509358e-05 3.941313834359126e-08 2.4378535851557375e-11 9.73358341543747e-15 1.182973773499788e-17 8.642457619931473e-18 1.5717896740417836e-17 1.0172245126740527e-13 9.440239067749908e-10 4.4536334146015225e-06 4.728985863174046e-06 3.903742234402656e-06 2.823528603800207e-06 1.7350787615001057e-06 4.437831469028126e-06 1.6197628396409856e-05 2.5152455333218227e-30 2.024075613044512e-24 1.8794421885414133e-20 3.1548990352185044e-15 3.785365898936599e-10 2.2589969497135676e-05 2.8691022610076174e-08 1.7761319904362574e-11 2.486865140140671e-13 2.1566496253844812e-13 1.8872097008271406e-13 1.625782173629414e-13 3.450159942408762e-13 1.4901640428163678e-09 5.383120772152067e-06 3.261329032237719e-09 2.320719936959882e-09 1.8838201066111416e-09 1.5916790717681244e-09 1.3616763817428909e-09 1.1628731085064323e-09 9.798001570995246e-10 8.034306347238199e-10 9.236704103361561e-10 4.308922158295341e-06 3.2575310732065504e-05 4.261180877280207e-08 2.6811122657476106e-11 1.362555275551856e-13 1.2233151662170868e-13 1.1905012645285894e-13 1.158000199945306e-13 2.0948446477692425e-13 9.210412599081477e-10 4.453591482315449e-06 5.1009274993517555e-06 4.299776172391678e-06 3.215867639575846e-06 2.086624837884878e-06 5.741833423802693e-06 1.891819736136757e-05 4.554293644874103e-25 4.112059547653431e-19 8.077879965574226e-17 1.717098857026232e-14 7.70789683149436e-09 2.1037641137206678e-05 2.9118524360308967e-08 1.7403494746887614e-09 1.6461039444018178e-09 1.5509265777600177e-09 1.4462388640309577e-09 1.336165295103727e-09 1.2224729181894363e-09 2.526005447585088e-09 5.385167941557563e-06 4.472136562401667e-09 3.482071004778178e-09 2.9234289700398547e-09 2.491146387686529e-09 2.116409258620232e-09 1.7698189548761136e-09 1.4392637037769236e-09 1.1207696980652359e-09 1.1493342296566884e-09 4.521500150280727e-06 3.3533259111202125e-05 4.761344811577525e-08 1.1862813677869915e-09 1.142138852745623e-09 1.126697418032796e-09 1.1111210012637398e-09 1.095419413434196e-09 1.0796191147392523e-09 1.9577941776595302e-09 4.454574587238596e-06 5.691438640803252e-06 4.923737280461191e-06 3.827634913457289e-06 2.6047489900486445e-06 7.065151812298878e-06 2.182297821808725e-05 1.5268926930269827e-21 1.3867584628191658e-15 8.476613633490923e-14 4.521404541867469e-12 7.412624022571012e-09 4.5231829902517626e-05 5.66939505176973e-06 5.623637490860328e-06 5.62477020813265e-06 5.62598169921874e-06 5.6270581115508315e-06 5.627901695245303e-06 5.627732130958506e-06 5.624820805956602e-06 1.0987059930471606e-05 4.920981451975343e-07 4.259899292515105e-07 3.343067114933953e-07 2.5357989194241934e-07 1.8566231783284337e-07 1.298468948421089e-07 8.473571123435525e-08 5.05416969680407e-08 2.5325259762215134e-08 3.7168291818440717e-06 5.37683145925969e-05 5.350405457308033e-06 5.286568675869156e-06 5.286825148386073e-06 5.2870792283382645e-06 5.287226014453033e-06 5.287334327983054e-06 5.2874214535912106e-06 5.2884719843694295e-06 9.739802636088079e-06 7.1753033697025185e-06 6.3680018815872795e-06 4.9573206916482595e-06 3.4301265863963835e-06 8.173500910341352e-06 2.4746434539293508e-05 3.6111899747890365e-19 3.313097899771463e-13 7.834873804979645e-12 1.3476940022219553e-10 7.172126167979217e-09 8.539094405478468e-09 8.819233332995483e-09 9.25568970518739e-09 1.0089781308127792e-08 5.290906224251434e-08 9.959288363190954e-07 9.65096119019719e-06 5.705084076992254e-05 0.0002460509585731014 0.0008954636391506829 0.0014160381227770395 0.0009758119525827553 0.000650384149143347 0.0004244006103025382 0.0002734938618390168 0.00017248055351871673 0.00010547094585955193 6.041755945781634e-05 3.4806702783343366e-05 1.4616619338443251e-05 1.532000067771414e-05 1.6420505196826628e-05 1.7739104632100907e-05 1.923131411707746e-05 2.0894512376444102e-05 2.274023765018221e-05 2.4793082965129644e-05 2.7095094277290385e-05 2.9726424299611e-05 3.286713773298277e-05 8.171641913114452e-05 4.7731759067819276e-05 2.401122213728877e-05 9.973223199202894e-06 9.843622443446995e-06 2.7478806757845658e-05 1.2835244245186481e-17 1.1974704153324513e-11 1.4412804119394555e-10 9.627359831272246e-10 6.660491415253616e-09 8.146287964340924e-09 8.402691727536006e-09 8.65179403221042e-09 9.419767032068419e-09 7.850913797023945e-08 1.4627318198165522e-06 1.3109291707400086e-05 7.188329140492767e-05 0.00028516171785633067 0.000922052771067124 0.001975208662588622 0.002479891274170344 0.002394972158656459 0.0020661348338390983 0.0016706851112119833 0.0012891567091587116 0.0009512488035848893 0.0006779849944724463 0.00045066522887875324 0.000322984976002329 0.000234972421542043 0.00022717394988208252 0.0002312905623450872 0.0002412000061164752 0.00025368049934046215 0.000267442702808616 0.00028147814051587914 0.000294487813136885 0.00030329877318241655 0.00030468572889946126 0.00028145266658605563 0.00021543308932879136 0.00012204422887657207 5.291859591889178e-05 1.968498560392782e-05 2.983966199480861e-05 1.3477742756465145e-16 1.2917317787242302e-10 7.232865876826976e-10 2.828964876785278e-09 7.083003691388525e-09 8.183103617931169e-09 8.396644622343043e-09 8.652091812431423e-09 1.536848739413518e-08 3.43232994523637e-07 4.639933824941304e-06 3.1797231653834096e-05 0.0001404890117243864 0.0004540467987134807 0.0011510115967735886 0.002324114738416805 0.0035791900241275805 0.004440231346349137 0.004794994353871231 0.004738699022980228 0.004398032360192301 0.003888986297315078 0.003300788166909204 0.002742057046481728 0.002283580735215071 0.0020549786503717736 0.001939989769455078 0.0019552181661407955 0.002018973027864737 0.00210689981131897 0.002204158812190698 0.0022998019055330463 0.0023781503684759545 0.00241206811776413 0.002341517280450817 0.0020963767673087075 0.0016148834516148019 0.0010202909606604619 0.0004224308322472288 0.0001284161153500638 3.170296916672869e-05 7.21014833328933e-14 7.700163708052404e-08 3.9621988040084624e-07 7.889830722965332e-07 1.2798413041391558e-06 2.0158105806184853e-06 3.3313399725502092e-06 6.179845813512343e-06 1.747015197123681e-05 5.3892749732126044e-05 0.00016027494468004945 0.0004297678248502237 0.0010074359785911772 0.002039923845332982 0.003567134834781434 0.00545451603440669 0.0074170367364171375 0.00914929253523816 0.01045800089511163 0.011281825844233583 0.011638470467197312 0.01158537217621893 0.01122024202463868 0.010687319667291993 0.010212133139453298 0.009890513558974464 0.009855648556522021 0.010009277365339317 0.010303201720063673 0.010660402228323615 0.011038540807567361 0.011401527607028183 0.011702038011100716 0.011851969528165387 0.011702974608695023 0.01099923104982428 0.009739624219492838 0.007010587610560217 0.004709448566627093 0.001161593914608564 3.312980880365894e-05 3.007677001685893e-11 3.463228485770107e-05 0.00020143825529223952 0.000168814611936197 0.00020167995860193006 0.00021381696451749262 0.00022446376553454943 0.00023185634247383356 0.00023797551936846373 0.00024323529046193273 0.0002479915781742706 0.00025228369396992684 0.00025601066066977565 0.00025897690864597244 0.0002609696945949022 0.0002620720655067315 0.00026256855642824346 0.00026290955926832455 0.00026345696784598204 0.00026442098273213646 0.0002658262316991537 0.0002675738753917375 0.0002693704880795494 0.0002706813023475353 0.0002707983766189899 0.00026926032059153797 0.00026584843658845084 0.0002607638961897631 0.0002543353405510865 0.0002468104275545885 0.00023833548623326158 0.00022901473484113145 0.00021887359921066477 0.00020801703128218698 0.00019623534170676066 0.00018460127121532781 0.0001655612438335698 0.00017888450500684082 0.004741696620530498 0.002015806218980619 3.4342143459380515e-05 4.195774219208053e-11 3.305229221923223e-05 5.3467004757158055e-05 6.777579100129888e-06 7.192340994719404e-06 7.469820609499468e-06 7.616448926812442e-06 7.6547523704376e-06 7.613860161399935e-06 7.525719431737977e-06 7.407273012231554e-06 7.268894178706903e-06 7.11887880183285e-06 6.966690566768781e-06 6.82281827894088e-06 6.6976042654037405e-06 6.602303581210555e-06 6.547617753157923e-06 6.536960241484136e-06 6.567319267249331e-06 6.6330451412598045e-06 6.727377904086807e-06 6.840004682155644e-06 6.953096463915379e-06 7.03522413143289e-06 7.070711241728253e-06 7.046567330916862e-06 6.979351817989882e-06 6.881961266452343e-06 6.767625889279017e-06 6.624857070713834e-06 4.1447712977336145e-06 5.952348446307008e-06 5.931788433988584e-06 5.85657002475253e-06 5.7708795896000945e-06 5.661225094606876e-06 1.0496292162326557e-05 0.00478038211044609 0.001958822312460549 3.54597577664195e-05 4.532241134417095e-11 3.00489726664488e-05 3.0052288091132655e-05 3.0056447748206765e-05 3.0062646804498905e-05 3.0071196319018703e-05 3.008254771810542e-05 3.009734423999984e-05 3.011640533879747e-05 3.0140689489992728e-05 3.017116570264035e-05 3.0208575914564135e-05 3.0253168067225454e-05 3.0304629830819087e-05 3.036245351733889e-05 3.0426743786254026e-05 3.0498266436164172e-05 3.057876534645516e-05 3.067041167981995e-05 3.0775661708366116e-05 3.089736043901522e-05 3.103912614429812e-05 3.1206365776603605e-05 3.1408375327365875e-05 3.166267086560141e-05 3.2004760529727066e-05 3.25073908061713e-05 3.334881222517675e-05 3.507588047825504e-05 4.173322012291216e-05 0.000607490072670059 0.013753264349104892 0.005124773339585071 0.004313179868059936 0.0040019042377990345 0.00378825725203843 0.0036381797212901726 0.003535079465918256 0.0034564287778442154 0.0017735599271047047 3.673688740103975e-05 3.831151479611287e-11 2.0987815036801508e-05 2.6448394421785216e-05 2.7439584780784488e-05 2.8012139268595732e-05 2.8361474038752806e-05 2.8602354389790556e-05 2.8777432237044743e-05 2.890948747619796e-05 2.9010139410205434e-05 2.908486980898448e-05 2.9134740394466483e-05 2.91574891759635e-05 2.9153455926441583e-05 2.9172377257871604e-05 2.9250192945487024e-05 2.9361449948510114e-05 2.9489691461336175e-05 2.9631149472611376e-05 2.9788273615788274e-05 2.996735679841938e-05 3.017878137099133e-05 3.043142305471194e-05 3.073931235107954e-05 3.112524884883129e-05 3.161123568940041e-05 3.2277719112335904e-05 3.328035301591257e-05 3.517832395738229e-05 4.2025642045751835e-05 0.0006000416130334938 0.014075002691302333 0.005090808223079467 0.0041793340894083954 0.003789602730556917 0.0034854796367036955 0.003217392638189222 0.0029506882999506736 0.002530409772191703 0.0013365159199183903 3.8324350251769185e-05 3.006998964128566e-11 1.6234887790664667e-05 2.213493613431306e-05 2.4651981603440073e-05 2.5825692081093946e-05 2.6554102761619337e-05 2.7042367285024517e-05 2.7389789077859306e-05 2.7642828426799237e-05 2.7825453308720095e-05 2.794788016658143e-05 2.801129747024259e-05 2.8008267678002007e-05 2.793843564494935e-05 2.8332406191484686e-05 2.9142615820725983e-05 2.9662892730443973e-05 3.003927534565096e-05 3.041138757298443e-05 3.080972304387813e-05 3.12499778071877e-05 3.173853560109534e-05 3.226139386354144e-05 3.2763074524179855e-05 3.317339565619118e-05 3.3448155028126345e-05 3.382224393009504e-05 3.4529871449325104e-05 3.6231614223619035e-05 4.297635786995988e-05 0.0005851374978653601 0.014783603868464059 0.005134832681353757 0.004106127791336713 0.0036582960397862747 0.003295021619676936 0.0029604149136600107 0.0026016892915466834 0.0020687976228578923 0.001101588717246258 4.050518691736194e-05 2.313539773844838e-11 1.2857667615259363e-05 1.8911924162330707e-05 2.1956589999042367e-05 2.367468000668449e-05 2.474098895927561e-05 2.5466327753509662e-05 2.5982945931948818e-05 2.6358903560562025e-05 2.662885647586764e-05 2.6808269707527157e-05 2.689561186496743e-05 2.6889371370313478e-05 2.6765782094660775e-05 2.9940540838430743e-05 3.43308452120489e-05 3.2949548616678744e-05 3.2694230281240524e-05 3.300524423629912e-05 3.3620285450588405e-05 3.442106171070477e-05 3.531189355149504e-05 3.625898008363828e-05 3.720287610534094e-05 3.756906685218206e-05 3.756896332075024e-05 3.669540180864473e-05 3.680350006129519e-05 3.8089827911392e-05 4.458322380645269e-05 0.0005651255296341766 0.014475435981756683 0.005275070597604252 0.004091281935881025 0.0035960980235048372 0.003188971069335573 0.00280721718737963 0.0023868318269094926 0.0018194336201778451 0.0009613797881378498 4.343462759478254e-05 1.828440230634289e-11 1.0547534845402658e-05 1.6298484138509416e-05 1.9615201742137113e-05 2.1648869642355446e-05 2.2986604959642554e-05 2.3916688258862682e-05 2.4589846928661172e-05 2.508607142373252e-05 2.5448638867308432e-05 2.5697361827813853e-05 2.5836445014718324e-05 2.5849930041996358e-05 2.5823061092356356e-05 3.854681985483094e-05 4.989071638448421e-05 4.0305012019112205e-06 3.884777779074331e-06 3.8463636174393795e-06 5.667707901912604e-06 7.464677757111241e-06 9.254252678073707e-06 1.15568094638322e-05 1.3487612059731858e-05 3.074072411237368e-05 3.8407158006055634e-05 3.85139195446513e-05 3.88522433035515e-05 4.0224576161416814e-05 4.67265987918681e-05 0.0005401603281902282 0.013388627422621249 0.005543950562597796 0.0041324945788400414 0.0035934145637713244 0.003150368748089209 0.0027308072773659267 0.0022719404417933437 0.0016855540537309235 0.0008873321000489553 4.712705062764108e-05 1.4941883767888142e-11 8.846672046083163e-06 1.4204086689562158e-05 1.757617339504612e-05 1.9795836383270262e-05 2.1324332862570133e-05 2.2421229808388584e-05 2.3233148555957303e-05 2.3845033256783256e-05 2.4305728362738112e-05 2.4641558471539782e-05 2.4861257093334348e-05 2.497603815998421e-05 2.510296388752274e-05 4.955398696288688e-05 3.2414236960112114e-05 4.3691296866337787e-08 1.0325017083105722e-09 1.0285699554519525e-09 2.1714561913034336e-09 3.595610193185067e-09 5.360428899031026e-09 7.81370999718364e-09 1.2103414634439035e-08 4.2894695871434875e-06 4.0062529093535115e-05 4.031570907286228e-05 4.1092485042758866e-05 4.273161342262555e-05 4.9406100017895456e-05 0.000509239352927826 0.011799648884951355 0.006163967882823725 0.004230574873127371 0.003644015246690052 0.003168444122293883 0.002717848665762785 0.0022295385472760553 0.0016283128254534285 0.0008547596549834367 5.1581686620332964e-05 1.2546699450512976e-11 7.548240132573829e-06 1.2483208645983344e-05 1.5803948372679556e-05 1.8110646163776383e-05 1.976693432217955e-05 2.099347437024913e-05 2.1925827089782985e-05 2.2648093970998738e-05 2.3212952071536383e-05 2.3653352458119045e-05 2.3992726528509595e-05 2.4265278145308576e-05 2.4713683613134696e-05 6.0245332820904425e-05 3.281815852829196e-05 4.145391423522172e-08 2.500305930162689e-11 1.7535188588521958e-13 4.4241446178211136e-13 8.765191132499857e-13 1.5097452149714759e-12 2.609380203778317e-12 9.472923818698577e-10 4.266227406447541e-06 4.265363324211822e-05 4.3026071744484666e-05 4.400004923062561e-05 4.589239556375369e-05 5.273684323682511e-05 0.0004693504318825463 0.009913398674355972 0.00693710589496905 0.004512243179701954 0.003745111169368217 0.0032371028792010496 0.002758501515804566 0.002244886287074448 0.0016257531028162047 0.0008524605160373949 5.675470584855692e-05 1.073082241198103e-11 6.51825744955208e-06 1.104090739843619e-05 1.4247460540711879e-05 1.657614251028322e-05 1.8310539700807583e-05 1.9635108694786933e-05 2.0670798900918205e-05 2.1498139730366803e-05 2.2172085598156446e-05 2.273285779063233e-05 2.3218262234059324e-05 2.3698146233588392e-05 2.451619185737334e-05 7.14173152080707e-05 3.2462560400168736e-05 4.094091003161766e-08 2.494740586766379e-11 9.896577583256263e-15 6.739617042544896e-17 1.4385614167777613e-16 2.815373262897116e-16 1.011410563885079e-13 9.174076066182249e-10 4.265871799209724e-06 4.6549365439013486e-05 4.7000696212479625e-05 4.8098048775494805e-05 5.0098574269381804e-05 5.689453941632596e-05 0.00041853256398485816 0.00790247380778435 0.0073964746946049145 0.0050619817503569624 0.0039638992013709155 0.003359693748206855 0.0028465172258878286 0.002308639587124554 0.0016676663164083472 0.0008742975582646009 6.257065287978328e-05 9.284714726115562e-12 5.674139887585677e-06 9.804404131625755e-06 1.2861491735426137e-05 1.5167021284796924e-05 1.694177048025075e-05 1.83378814202183e-05 1.9461478975375908e-05 2.0388068308413232e-05 2.117383820332117e-05 2.1865237119744048e-05 2.251299021592294e-05 2.3213875542435068e-05 2.4405614166629457e-05 8.210451401578191e-05 3.2724039486829056e-05 4.0935940590988265e-08 2.5144710590736606e-11 1.010956403424768e-14 3.031888839979124e-18 1.9018907282104817e-20 6.8465615704242436e-18 9.431391512318362e-14 8.869463460167309e-10 4.265482278058146e-06 5.264115307628721e-05 5.3120306302610195e-05 5.416967536269278e-05 5.6024900329409364e-05 6.230220687134104e-05 0.0003575880234515148 0.005931545501943144 0.007270076489590359 0.005684486009338883 0.004355889546537689 0.003568185653015331 0.0029837087015119135 0.002410941802402092 0.001742292119690295 0.0009173848476043127 6.891911470617739e-05 8.084956449288847e-12 4.960660781489572e-06 8.7194965567297e-06 1.1605624475113526e-05 1.3855712715295708e-05 1.5640973312727293e-05 1.708601433621803e-05 1.828287162775065e-05 1.9301558774482e-05 2.019839706823997e-05 2.1024515005479835e-05 2.1840277497675626e-05 2.2761690019534953e-05 2.4303565582522437e-05 9.136011322341119e-05 3.3092745809522255e-05 4.120345700429789e-08 2.5302947665543192e-11 1.0198624381146215e-14 3.0614744075942583e-18 1.512364996197545e-21 6.059227476664829e-18 8.696538040668431e-14 8.50075458644837e-10 4.264907565126558e-06 6.319289017007841e-05 6.35319159463923e-05 6.41164901552294e-05 6.523284883303518e-05 7.010865624393756e-05 0.00029208041654887337 0.004153469245227654 0.006507458599427726 0.006070133596573422 0.004867402195532692 0.0039007592320645414 0.00319096946303196 0.0025567671395403135 0.001849459539127547 0.0009814011789016734 7.565436726573408e-05 7.054288785388743e-12 4.339948520093582e-06 7.744823105349362e-06 1.0445041977434216e-05 1.261452267986728e-05 1.4385258143667465e-05 1.5858551704513887e-05 1.7113644308964983e-05 1.821471160174044e-05 1.9217224501713954e-05 2.0175192216654532e-05 2.1155353358269535e-05 2.2286619519343103e-05 2.413701235941941e-05 9.787181179141074e-05 3.3595338161141795e-05 4.1825699727030554e-08 2.5558333643156056e-11 1.0225251721240767e-14 1.1653720342394248e-17 8.241221878671914e-18 1.3041655604684447e-17 7.782926446482646e-14 8.014244720590025e-10 4.263892536007963e-06 8.64950989642036e-05 8.590581888571091e-05 8.44648919219319e-05 8.28994122226206e-05 8.420217404132507e-05 0.00023293708523460118 0.002689764564973453 0.0052623380924033125 0.0059527428521667855 0.005301475852060941 0.004338195254811308 0.003494725325259947 0.0027615060430328793 0.0019941255135721135 0.0010681762166463256 8.25993865071337e-05 6.141475522619366e-12 3.7853044209900607e-06 6.848780845928715e-06 9.350744550516822e-06 1.1417895156343443e-05 1.3151213477170508e-05 1.4632368074200523e-05 1.592891542491785e-05 1.7098974690928803e-05 1.8195886499232005e-05 1.9274369533400386e-05 2.0404487872128526e-05 2.1721536999435486e-05 2.3821390104775158e-05 9.97059928144363e-05 3.4670894097431805e-05 4.3214390264109873e-08 2.634280979104906e-11 1