# vtk DataFile Version 3.0
vtk output
ASCII
DATASET RECTILINEAR_GRID
DIMENSIONS 41 41 1
X_COORDINATES 41 double
0 1 2 3 4 5 6 7 8 9 10 11 12 13 14 15 16 17 18 19 20 21 22 23 24 25 26 27 28 29 30 31 32 33 34 35 36 37 38 39 40 
Y_COORDINATES 41 double
0 1 2 3 4 5 6 7 8 9 10 11 12 13 14 15 16 17 18 19 20 21 22 23 24 25 26 27 28 29 30 31 32 33 34 35 36 37 38 39 40 
Z_COORDINATES 1 double
0
POINT_DATA 1681
FIELD FieldData 1
Concentracao 1 1681 double
0.0 1.1335965837383802e-57 1.763888268175379e-51 1.82600419757102e-45 1.0091927699789712e-39 2.4404550742666997e-34 1.4277752639169887e-33 5.0074133899922654e-33 1.332360353131411e-32 2.9489189866373475e-32 5.709763110029135e-32 9.970642601483176e-32 1.5986136145095892e-31 2.3745216268646534e-31 3.288665783913072e-31 4.439270082075177e-31 2.1341210519774326e-30 2.8189629326439243e-28 6.667186632185565e-26 1.2866319818757162e-23 1.4484564689349354e-21 8.458775993343811e-20 2.5947181181182725e-18 4.465483298229454e-17 1.0681221528085668e-15 1.4098022549698223e-14 5.79343654498613e-14 1.6081765135857801e-13 4.118404809085858e-13 1.067667349681149e-12 2.7817655188532875e-12 6.95589832243284e-12 1.6385215998809256e-11 3.6176088235454585e-11 7.526511426478431e-11 1.4995609354437413e-10 2.93079390120635e-10 5.703980325905536e-10 1.071840896384357e-09 1.5636780378454895e-09 1.968348016538895e-10 1.21100139419645e-57 1.416996863269559e-51 2.204862099107492e-45 2.282507072967973e-39 1.261491971666484e-33 3.050571254839607e-28 1.7847205076715e-27 6.259271489181389e-27 1.6654517020311786e-26 3.6861516429277763e-26 7.137209597299529e-26 1.246331302877945e-25 1.998268616750601e-25 2.968154408102444e-25 4.110835518557124e-25 5.549092041864053e-25 2.6676534342847102e-24 3.523706484767838e-22 8.33398995741859e-20 1.608291263976627e-17 1.8105720346251382e-15 1.0573478295501556e-13 3.2434002222009442e-12 5.5818585473690786e-11 1.3351537591328613e-09 1.7622542285145328e-08 7.241801465021144e-08 2.0102222501587388e-07 5.148010086324544e-07 1.3345852497310642e-06 3.4772096803321283e-06 8.694879814534656e-06 2.048153627003465e-05 4.522014627963412e-05 9.408146809609465e-05 0.0001874452668865612 0.0003663495284118343 0.0007129981032203478 0.0013398021923213424 0.001954599106644813 0.00024604369817258305 2.0744820027850268e-51 1.951917100594791e-45 1.8504913306084647e-39 1.5499717703388264e-33 8.387208800503257e-28 2.1816181589808843e-22 9.05888526144514e-22 2.440501225048405e-21 5.244008410563845e-21 9.70887561996764e-21 1.6130629046663584e-20 2.459561230190513e-20 3.477725040908863e-20 4.5583100348447215e-20 5.51381885568508e-20 6.137656908401312e-20 6.357476575186429e-20 6.412749230884915e-20 2.6618509744983664e-19 4.552540618588904e-17 5.676242220225717e-15 3.610657490849014e-13 1.1889921700862467e-11 2.1176942512180605e-10 1.4255630760143378e-07 8.534323967395478e-07 2.0444777245046836e-06 3.644329289819048e-06 5.7058874003000656e-06 8.974648575342605e-06 1.5472761635081497e-05 2.863691529937107e-05 5.4594322459694234e-05 0.00010341411075584861 0.0001923813618276373 0.000354174541838557 0.0006699483336172882 0.0013095240475252336 0.002524000093849771 0.0037814373488992588 0.0004927846084723101 1.9955107537548573e-45 1.8413976337913142e-39 1.4003893156301228e-33 1.0098411307854726e-27 5.422378321579202e-22 1.563941319904336e-16 4.337220569144166e-16 8.63036099058902e-16 1.4524331123293318e-15 2.200383239989262e-15 3.0906903684657977e-15 4.083816187312675e-15 5.1025217719148845e-15 5.9628833941809026e-15 6.43824682068023e-15 6.072896699826846e-15 5.2625878153908086e-15 4.269228736018183e-15 3.5026204224363342e-15 3.0635319188813715e-15 1.9988778485968914e-14 1.2903926973733496e-12 5.054875522073419e-11 1.1160433764147353e-09 7.030245012204142e-06 1.6183409474721753e-05 2.755351566588529e-05 3.867750178880644e-05 5.1897265256032276e-05 6.897314479994378e-05 9.367485289986282e-05 0.0001306466962222542 0.00018626121724542189 0.00026603965459450634 0.0003788503310298661 0.0005702381936240561 0.0009440273225578925 0.0018048857560039803 0.0035886938264988537 0.005512251445470552 0.0007427841370432956 9.846416522762809e-40 9.304399325002853e-34 6.860544240360998e-28 4.876911647965516e-22 2.846445660151079e-16 1.0238786595407694e-10 1.7050982800370354e-10 2.38479170066716e-10 3.0616402918605543e-10 3.7279185787560707e-10 4.374851874093292e-10 4.986989962985731e-10 5.537614553620643e-10 5.954507162018148e-10 6.158599839114882e-10 5.089488393584259e-10 3.013668506597918e-10 1.9173561016692485e-10 1.2442873097019423e-10 8.539931650124068e-11 6.234473529602822e-11 5.5143408349988925e-11 3.637936282095206e-10 2.2655606815594014e-08 9.565028196787287e-05 0.00010254350564090246 0.00012176581345679057 0.00014982053930021812 0.0001887135186268693 0.00024111517391440002 0.0003091312006660797 0.0003975221178529805 0.0005093647406001579 0.0006448297387316562 0.0007529754027716345 0.0008649143919335321 0.0012056468504623018 0.0022596976313852277 0.004640461600253767 0.007222235237319446 0.0010007492147915214 2.0836326046011328e-34 2.0525735915616324e-28 1.6057407164484996e-22 1.2469535157812835e-16 8.80371932426379e-11 4.949987557216857e-05 3.795470136132223e-05 3.650645892758666e-05 3.4866837061660154e-05 3.3382101324341515e-05 3.22869553372034e-05 3.1684307973963684e-05 3.240898307395594e-05 3.216596409584648e-05 6.004819743852866e-05 1.954220055814652e-09 1.1909090206311737e-09 6.955203974202067e-10 4.4953307462070186e-10 3.0780468223556446e-10 2.2487864904584268e-10 2.1587688529630565e-10 3.2067084672835463e-09 1.8819219120886003e-07 0.0005923091499109715 3.846962748934777e-05 4.155345437225957e-06 4.588515313985948e-06 7.265694699614874e-06 9.26299557960077e-06 1.11193497357646e-05 1.2968804398041859e-05 1.530383704639998e-05 1.717017113528356e-05 3.4447518064963376e-05 0.001038786756693986 0.0014502843329016627 0.002836945899767654 0.005850901674192029 0.009016121688352882 0.0012732269868877925 1.2012182974827753e-33 1.071399543679373e-27 6.000562706786422e-22 3.1046365452372775e-16 1.2819312720610637e-10 2.7175494115541882e-05 6.309166712841104e-08 4.089718724051674e-08 3.776625635411537e-08 3.4591535415855594e-08 3.202719260731146e-08 3.040603082953165e-08 3.033684846404199e-08 3.228750770607579e-08 5.4338595303286625e-06 2.0921632613008135e-09 1.4172122573363602e-09 1.0042200829276608e-09 7.171922178593821e-10 5.290921584082111e-10 4.072980142805695e-10 6.685076638449545e-10 2.9114594154071878e-08 2.8006372608607807e-06 0.0012286727800732203 2.635233571298687e-05 1.257484018135603e-08 6.895618443528157e-10 1.4316704836007902e-09 2.1846631871322427e-09 2.9541866011998402e-09 3.786734611537038e-09 4.812614233480259e-09 6.370116063210405e-09 4.446754286346492e-06 0.0014062152261831162 0.0019433287575156865 0.0036825592579525085 0.007446212941510386 0.010980833918905978 0.001569049567499303 4.066450567872471e-33 3.40653185729894e-27 1.484400479390161e-21 5.744698283691556e-16 1.7042570651312458e-10 2.6922356142284538e-05 2.2318955327041884e-08 3.1328549199650606e-11 1.9850289743984654e-11 1.7434447067192498e-11 1.5400774073660554e-11 1.393474082370189e-11 1.3372054877105024e-11 8.394025902685836e-10 5.3845217242516055e-06 2.26269844986847e-09 1.5880375117979245e-09 1.1951548446397398e-09 9.163202282711054e-10 7.129537594584093e-10 6.049669366135674e-10 3.577947274639996e-09 2.090274218373604e-07 1.632766049609765e-05 0.002012858263524778 2.7238985478125474e-05 1.1909039431259061e-08 2.6845241141526886e-12 1.5869640300568163e-13 2.751540092064562e-13 4.101946125619634e-13 5.660073982920545e-13 7.770817434067308e-13 3.1545629202266234e-10 4.4281160824731176e-06 0.00202807728645704 0.0027820135361093477 0.005024369445039012 0.00954938927044075 0.013152130644232983 0.0018980404867995804 1.0456252932008105e-32 8.389526667122289e-27 2.9945125271586844e-21 9.236138918932625e-16 2.1384613707185405e-10 2.6468376705413595e-05 2.1426514947166973e-08 8.643710717458626e-12 9.169836238760638e-15 5.714259539099638e-15 4.771480559049107e-15 4.053182820243373e-15 6.322554827783629e-14 7.994920198182557e-10 5.3850459929036555e-06 2.447122296034259e-09 1.7292428728723924e-09 1.3457297231182613e-09 1.074261408352318e-09 8.88458197755932e-10 1.3497838054078891e-09 2.5949445661063038e-08 1.073998809310971e-06 5.1436670975874864e-05 0.0030478501008097624 2.751954591683565e-05 1.176852965802706e-08 2.6070111632166507e-12 4.028015335881882e-16 2.4784280917282015e-17 3.9470348996332636e-17 5.762861414317916e-17 1.1311190729321515e-14 2.951795017069852e-10 4.41506802307819e-06 0.0030007021883329548 0.0040638670241773854 0.006949265269264111 0.012226364993929057 0.01549553137914817 0.002270643305837441 2.2553954991567095e-32 1.7530542726749154e-26 5.3054785983678945e-21 1.358578704145524e-15 2.5666329933835843e-10 2.5293521746315148e-05 1.962379112210147e-08 7.550734250771835e-12 1.9461354109261587e-15 1.7595736652558068e-18 1.075983994147044e-18 3.490052002209104e-18 5.5008355279569266e-14 7.670141075519186e-10 5.3856371153359254e-06 2.8484957945434304e-09 2.105555350602167e-09 1.8256270796160532e-09 1.8573363089418234e-09 2.8505736524813097e-09 1.2463688545298448e-08 1.75191161429111e-07 4.097807259585289e-06 0.00012160759619264623 0.004275156208865925 2.8177557399890612e-05 1.1692564850563934e-08 2.579459506374234e-12 3.8832971648762713e-16 4.639544200540524e-20 2.977706524111124e-21 2.7326065265822565e-19 9.980437441211308e-15 2.7520828119565707e-10 4.394900521302038e-06 0.004456745154145979 0.005917345426814693 0.009524299177764789 0.015430905861538814 0.01793670171325561 0.0026966050986285844 4.301827761675797e-32 3.262756842412157e-26 8.581375722456473e-21 1.8774307332948315e-15 2.984006727452228e-10 2.4081826712610524e-05 1.766210130515462e-08 6.404402246588397e-12 1.5387504175707493e-15 2.7884581064846987e-19 3.4319460670656216e-22 2.292147504821703e-18 4.9807922027055966e-14 7.286113163160912e-10 5.386172871394137e-06 2.2108566119373677e-08 2.3590019151765276e-08 2.879514336238286e-08 4.0727269783752056e-08 7.108111074071969e-08 1.8531387315464164e-07 1.025448111272747e-06 1.2376954421369966e-05 0.0002365953522846625 0.0056038361630803704 2.894733190741637e-05 1.171922592333988e-08 2.5599301844197095e-12 3.839678194925017e-16 4.4034433013050727e-20 1.324340514188406e-23 2.276540001560254e-19 8.786430321853102e-15 2.5475391211872116e-10 4.364251614282584e-06 0.0065590124919029215 0.008473633633972407 0.012768588770808715 0.019047021713267723 0.020391953924351013 0.0031832953538896147 7.496009645614395e-32 5.575882838609917e-26 1.2978895033945262e-20 2.477100059078733e-15 3.3886855061218013e-10 2.293628357011858e-05 1.5901731323624597e-08 5.378223663146542e-12 1.1898000144406082e-15 1.8489127936414313e-18 1.1071270501116845e-18 2.6227246191836623e-18 4.4063167659822536e-14 6.833557101373788e-10 5.38667880702243e-06 7.690303926890091e-07 8.202340994427699e-07 9.244716204797106e-07 1.1103713276497406e-06 1.4552274593309904e-06 2.2603407542959487e-06 5.468430887148041e-06 3.1392213660521066e-05 0.0003916408015217552 0.006864836530111026 2.9905604029175004e-05 1.1939414970041004e-08 2.581014287460946e-12 3.8337058407339703e-16 2.7897529069385805e-19 2.0957309706828231e-19 3.7608275772343024e-19 7.649404451020459e-15 2.3374642859701086e-10 4.318065859304723e-06 0.009515753208819451 0.011862245001231743 0.016630499607373405 0.0228958162746906 0.022803035620337177 0.003732943246294079 2.5173323549732875e-30 2.025803255686475e-24 1.8813201572012347e-20 3.1579285518565328e-15 3.7887748827445526e-10 2.26080226608568e-05 1.4788869333798276e-08 4.710236729469566e-12 5.153939475519097e-14 3.9560723333321475e-14 2.934960026426639e-14 2.0703884277506976e-14 5.157648338751743e-14 6.291906677243546e-10 5.387003505291473e-06 1.6997355724173032e-05 1.7370538829786485e-05 1.784794082701328e-05 1.8558809800926807e-05 1.969281830220443e-05 2.1934208422291646e-05 2.9187880228899433e-05 7.402556549869224e-05 0.0005627167449784898 0.007774583106820909 3.155341102219156e-05 1.2553869658601022e-08 2.7095894467202515e-12 1.0839851066806194e-14 9.606648002065262e-15 8.80360508065269e-15 8.038360135300677e-15 1.3859428445519555e-14 2.117315683744116e-10 4.247469272040221e-06 0.01364117346217633 0.016227740665257985 0.02099052688059042 0.02676330789661568 0.025170473416556857 0.004338267253030512 4.557008985400538e-25 4.1145117268335085e-19 8.082700365213084e-17 1.7181235827729348e-14 7.711867909475432e-09 2.1048061252686977e-05 1.4898426714961999e-08 8.302701846229851e-10 7.469510338982997e-10 6.515566207969985e-10 5.475275756333366e-10 4.412039473287893e-10 3.383212868592467e-10 8.050242824764876e-10 5.384533706577704e-06 0.00024762892876268173 0.00024184604723094893 0.0002290928718997913 0.00021290658311009364 0.0001955722811879083 0.00017817303099766817 0.00016660723970264265 0.000202213814729233 0.0007259194388299939 0.008156627816170594 3.2426712358478064e-05 1.3799378372002418e-08 3.188400137309466e-10 3.01399820576169e-10 2.866742335846376e-10 2.719412565747e-10 2.5723592094401414e-10 2.425249967994808e-10 4.1487902260432067e-10 4.131761301296557e-06 0.01959352979880884 0.021869529677666377 0.025746086967465796 0.03047137787795295 0.027570684358801462 0.004977647409660702 1.5277028010102342e-21 1.3874942152665459e-15 8.481110834999274e-14 4.523803084661049e-12 7.4165545023605755e-09 4.531921434546821e-05 5.654245074236012e-06 5.630867493319002e-06 5.6310880792253445e-06 5.624532213346167e-06 5.579448069197801e-06 5.425701344363192e-06 5.076931700290834e-06 4.474369389110286e-06 8.933110358641141e-06 0.0026729782644685615 0.0024685606609411988 0.0021169497785191323 0.001789662665275523 0.0014918097114556394 0.0012193313091667342 0.0009703988162072562 0.0007938310809383697 0.0010644807175836963 0.007017825419216125 5.2327895661296495e-05 5.139551954795149e-06 5.095686330378001e-06 5.065847329122479e-06 5.030817991115341e-06 4.990011892968135e-06 4.942616654702038e-06 4.887410808183445e-06 4.822422651630003e-06 8.614895118808186e-06 0.029902771789418855 0.03021787839293872 0.0312903305419516 0.03409606678931216 0.030124449289494225 0.005614205281642324 3.6131047406487365e-19 3.314854608850934e-13 7.839028114542414e-12 1.3484085971156261e-10 7.17592908003169e-09 8.545538382107854e-09 8.828071349015463e-09 1.800088280519146e-07 2.5943506678122468e-05 0.00042181935110280534 0.00244461562466833 0.007865745355555051 0.017219408806308754 0.02853661768280644 0.03777613617243754 0.029390238153201395 0.017814808594582975 0.012494589673586392 0.009432566608927367 0.0074061080270883565 0.00585669969631414 0.004565249554354989 0.0034224608623969525 0.002864324297429476 0.006315990917089723 0.006916622698502389 0.007842438469859816 0.009008132320385288 0.010390121699565383 0.011995380279326487 0.013839357487692595 0.015945274214955688 0.018347590214970337 0.021110265044320415 0.024380223547110447 0.029165726658609913 0.034288220737804444 0.036047253564033106 0.03754885445341108 0.03292805298196401 0.006203224629777993 1.284262461741948e-17 1.1981495467593798e-11 1.4420667606784862e-10 9.632530369375061e-10 6.6640380938013375e-09 8.152164943461273e-09 8.415831935658118e-09 3.5883726533952615e-07 4.327359229047112e-05 0.0006125124039038171 0.0032035695244699157 0.009533404163745896 0.019597002517545384 0.03080780376665402 0.03912824694292381 0.039855897191519656 0.03373493195980878 0.02738392805496553 0.02260696015637435 0.01900786668861174 0.016070694474025767 0.013421677309289658 0.010990393881621973 0.008698086870336848 0.008727037119287278 0.008943772913452193 0.009847706666759477 0.011084891084532856 0.01258447387900989 0.014331308503266681 0.0163282313552412 0.018584013735637898 0.021109381285495468 0.023913835407325442 0.027047154977091054 0.030713941140232588 0.03503048028223695 0.03828912677617166 0.04010422462011254 0.0357132330973885 0.006707832245071519 2.989633264082123e-16 2.774298478212052e-10 1.3965574640032388e-09 4.88987398019038e-09 1.1826567657550104e-08 1.862792773420041e-08 4.109890741367892e-08 5.348548874180651e-06 0.00020550098796886406 0.0016799273225705897 0.006359702449712074 0.015143799941299054 0.026326318081758865 0.03631812335870691 0.041962346269152316 0.042344791266990124 0.03896179252599729 0.03452418526613079 0.030665686690788018 0.02768610163819552 0.025314058927793478 0.023188559120292634 0.021040419593359293 0.01891101731234878 0.017501016553290574 0.017206017122275718 0.017561140902300803 0.01863216804665805 0.020076171667158055 0.021786295558904756 0.02370401262104317 0.02579077019377573 0.027999984252220146 0.030266424538262296 0.0324866944508553 0.03463228942675016 0.03695335852320656 0.03943395999824081 0.041600845538855756 0.03840945557266233 0.007103432109275122 2.2765622549174455e-11 2.4336367407742192e-05 0.00012545201672881017 0.0002501417741093489 0.0004065729801309987 0.0006424668294456981 0.0010659230011380114 0.0019928736238980977 0.0050008985095010006 0.011178020508928774 0.020346988575642114 0.03028534896241455 0.0378824144991143 0.041098008978352175 0.04002598174869267 0.036288074846377055 0.031707467273942275 0.02754021795069624 0.02436748799690844 0.022269165386326735 0.021062725164150607 0.020466298689164046 0.02018275241170183 0.01999699886735548 0.019918043864439326 0.020034817609503233 0.020380064230624353 0.020904799875070875 0.021555850259324553 0.022290698135708078 0.02308947764289808 0.023946259355018453 0.024873122455074035 0.025922160156555164 0.027208965838513035 0.02895384898911303 0.031193873139490035 0.03478047485591561 0.03795221255053996 0.039106464482742374 0.007404581550927701 5.907422942377125e-11 5.536021041409153e-05 0.00020262841472546553 0.0001694193106272261 0.00020247054872953816 0.00021448070239892024 0.0002247592974389791 0.00023114956849656218 0.0002334938190236857 0.0002294454793265055 0.00021644718855805508 0.00019372576015279505 0.00016365715522700236 0.00013104911072170922 0.00010091396640832914 7.646511773463847e-05 5.927533059481252e-05 4.985640652641556e-05 4.752903828536199e-05 5.0961135951443044e-05 5.8864460222243145e-05 7.019235695903278e-05 8.377600422439055e-05 9.787910018523458e-05 0.0001094071116086065 0.00011700359437201269 0.0001192078013406535 0.0001177967546700045 0.00011386804108244901 0.00010865582228640819 0.00010278659640167177 9.669240117604909e-05 9.076768015373382e-05 8.563745793528108e-05 8.202837801301395e-05 8.163926176280519e-05 8.005591079597166e-05 0.00010254609628604946 0.03851783265144319 0.03960565885201377 0.00765920221361587 7.329026761912105e-11 5.337498308939583e-05 5.324792517662992e-05 5.934656908980945e-06 6.109371946579241e-06 6.205652935239902e-06 6.219317845338704e-06 6.156169381154341e-06 6.0351919937014165e-06 5.885865695231973e-06 5.728188899893076e-06 5.578409274125293e-06 5.448729356631911e-06 5.346072254209241e-06 5.271280868026718e-06 5.22054649098058e-06 5.18996363392477e-06 5.177155786346884e-06 5.179452671445699e-06 5.193962189882857e-06 5.218525865297238e-06 5.251718108719093e-06 5.29139333751674e-06 5.332369873621086e-06 5.362371064250805e-06 5.374296328324312e-06 5.359794412559597e-06 5.3135367949789925e-06 5.191640661710686e-06 4.795548060934694e-06 3.3508713428297615e-06 4.229430159817997e-07 1.5088943680132226e-06 2.2304366938183586e-06 2.6943227086419044e-06 2.984929305244956e-06 3.1643977390254602e-06 6.367175382260076e-06 0.03919613822739716 0.03904225556930261 0.007893041055953063 7.659280426452342e-11 4.896661275457034e-05 4.951236260185705e-05 5.0582124934461185e-05 5.2266057996674585e-05 5.464509275917454e-05 5.7871855063089664e-05 6.214283305521696e-05 6.770546099097157e-05 7.484228421441361e-05 8.383547826980153e-05 9.490404549782167e-05 0.00010813899946344945 0.00012349984175843407 0.0001409362396583657 0.00016065109746639638 0.00018316314425162225 0.00020951539957911078 0.00024130072157343757 0.00028094282833684373 0.00033227716287734195 0.00040164580762118635 0.0005001863398305859 0.0006491017407803592 0.0008932497006766111 0.0013405040490777247 0.0022741614616902067 0.004525836287495878 0.010493379293551796 0.025308300669326964 0.04429886780970625 0.007862322070949255 0.03621098743131742 0.046547549121497826 0.04708343684319918 0.044583312504896964 0.04187122855191778 0.039730209930868364 0.03824491967942885 0.03643299603571549 0.008159119058864033 6.439035907998412e-11 3.4608461914275124e-05 4.416608684731546e-05 4.679823168657971e-05 4.937662608767876e-05 5.2282111986962664e-05 5.586497369993499e-05 6.0391845364095184e-05 6.615320628829482e-05 7.346126391815234e-05 8.262811164630763e-05 9.390619734953806e-05 0.00010752426906064381 0.0001239226962502685 0.00015230154686389722 0.00018978622171411896 0.00023080830047957518 0.0002750178795472116 0.0003238044195107003 0.00038145314961209574 0.00045353967675263314 0.0005482589217347343 0.0006764545772148427 0.0008565848104518926 0.0011285241608948245 0.0015885761012533332 0.0025332059086288464 0.004784633417149526 0.01077632271858254 0.025581528555789414 0.04438092377902933 0.00706651090765098 0.03529559074102177 0.045753592374799645 0.04631226428301942 0.04365405576876025 0.04060750200064305 0.03789653399107182 0.03524540138392002 0.029710911474711048 0.008488133531182414 5.0914295786697456e-11 2.7282565959909855e-05 3.777465148558309e-05 4.3037969776764434e-05 4.663488228972576e-05 5.021510680184802e-05 5.427226936091592e-05 5.9192230709340946e-05 6.53306508493603e-05 7.307238216483168e-05 8.283471552270464e-05 9.505304371672094e-05 0.00011048910263265024 0.00013408308381612714 0.00029481505647012944 0.0004160376057359071 0.0005257974977855929 0.0006252963269224568 0.0007329654490031323 0.0008567430150862575 0.0010039359174753406 0.0011811238806997402 0.0013929140481672116 0.0016340690680780568 0.0019075243967646913 0.0022992126783439263 0.0031053148032754276 0.0052729384038228515 0.011283020946009348 0.026065610369860992 0.04439178068860219 0.005363373729795162 0.033698809671304106 0.0448550661113548 0.04586576309578355 0.04328414157736511 0.04003807452894455 0.03686275605100538 0.03306680468281361 0.02641712121920278 0.008936727768632042 4.001306009131083e-11 2.2201797211020478e-05 3.3248342635738986e-05 3.960626248101706e-05 4.427272803803696e-05 4.856105251616619e-05 5.319377684480057e-05 5.864323664997831e-05 6.535787908101343e-05 7.384033162061419e-05 8.471991371433346e-05 9.886110927531322e-05 0.00011862245230430025 0.00017198251022300016 0.0010767927250296472 0.0009537157583893605 0.0010109392341833962 0.0011199952610226086 0.0012700827918942458 0.0014568744959906979 0.0016813243363055237 0.001941886380004015 0.0022379535513428694 0.0025639277880345006 0.0028167286868661873 0.003053720885443065 0.003685948067565362 0.005842223936517413 0.012065682062417872 0.026843428582150376 0.04442077346419911 0.006760136271831631 0.03134492704749374 0.04369280165036661 0.04558427226321509 0.04331534324215745 0.040005785590522765 0.036404663035440675 0.03196879177391194 0.02474084039707402 0.00953303141362109 3.275447221384943e-11 1.8904244494767518e-05 2.9828722438943537e-05 3.695271875826751e-05 4.242265572152597e-05 4.744113459224751e-05 5.273580099314098e-05 5.886738259023673e-05 6.638916331870242e-05 7.597950401573503e-05 8.861895043492194e-05 0.00010605120856354159 0.00013472699130697127 0.00026717254868973794 0.003586545358578656 4.904145296799534e-05 3.974294691635717e-06 3.850548863199596e-06 3.807254584079171e-06 5.603902781387692e-06 7.369130769509242e-06 9.119937508134181e-06 1.1368943308963756e-05 1.3242210326775352e-05 3.0196859742183685e-05 0.0034361018358408657 0.004187614345167854 0.006696962867663629 0.013274857822792405 0.02807321920777063 0.04454040154715392 0.01045175139396002 0.028129309851745752 0.042038592144327494 0.045255350243808556 0.043574565528257524 0.04034858221756675 0.036520983126187574 0.03167279693960564 0.02422265367908737 0.01027456540100854 2.8121457491832015e-11 1.6663803724768223e-05 2.740710377024644e-05 3.5041205667574035e-05 4.122067681574527e-05 4.697678428880605e-05 5.30393994545375e-05 6.003396930071848e-05 6.864168912716753e-05 7.978215919519457e-05 9.497398373010146e-05 0.00011750817822966662 0.0001616126155234922 0.0004992842867389157 0.006503920761545952 3.1283179366603606e-05 1.4938194052931622e-08 3.91888171613269e-10 3.873349340225904e-10 7.985203716243068e-10 1.2890180020632603e-09 1.8714017957484915e-09 2.6545199007730776e-09 3.9670347767237195e-09 4.173152069859436e-06 0.004280905132752792 0.00520251208016465 0.008066524482864983 0.015214056399127571 0.02977796481703138 0.04479905821983743 0.015591034067850647 0.024393122968805803 0.039626576244338546 0.044631319146529215 0.04386896748660217 0.04093689577821323 0.03705446865975464 0.03199694456725345 0.024423953746873176 0.011154466180526589 2.5206269751423448e-11 1.5174728063235696e-05 2.5798159334342177e-05 3.389014224762727e-05 4.0758285954986644e-05 4.731650933642032e-05 5.428980922963911e-05 6.237561871839702e-05 7.241005943215463e-05 8.563157186546451e-05 0.00010432147659752213 0.00013447385145736452 0.00020978754032471551 0.0008675486026140278 0.009206438898037362 3.11903872539114e-05 1.3087368138565608e-08 2.9903240035292222e-12 2.5647791891672e-14 6.445551935375767e-14 1.2221189956693162e-13 2.0113113131376093e-13 3.2807129367362547e-13 2.6509655155075616e-10 4.136009148966894e-06 0.0058045428970896346 0.007029066894647538 0.010388049731998247 0.017968742289041675 0.031931826962875304 0.04520765648907117 0.021572901411537986 0.021844668510597846 0.03588987677776496 0.04342931774565836 0.043992150625900395 0.04161150384648804 0.037862812405791674 0.032748148625789404 0.025119533054214487 0.012156523715841056 2.345995422096952e-11 1.4257580500308602e-05 2.4923144734804526e-05 3.352964861720481e-05 4.1161102373372096e-05 4.865250730878425e-05 5.674171074866366e-05 6.621399647835609e-05 7.809639453135743e-05 9.403481127409121e-05 0.00011739486937525644 0.00015891570841675793 0.000290809005615703 0.001381516011777876 0.011905627354793696 3.036260072735933e-05 1.210699915237222e-08 2.7016372389827736e-12 4.2346730706940057e-16 3.929147639118013e-18 8.150878385237997e-18 1.4820458405572704e-17 8.368332052144438e-15 2.397963305980574e-10 4.084908230769528e-06 0.008422865275229218 0.010037933159121621 0.013895913619740193 0.02162380102282804 0.03441742888683343 0.04579326037341335 0.02791368144241463 0.02158283302485937 0.0315018783308984 0.04068678595605627 0.04344594343670362 0.04214303580408999 0.038790702360847217 0.033781523074100234 0.026155422799428188 0.013258435726073626 2.2628845126666612e-11 1.3834455536141979e-05 2.477560763355378e-05 3.405684254953684e-05 4.2622109112869916e-05 5.1267884739118694e-05 6.0767676886475354e-05 7.201976282864554e-05 8.628665128060634e-05 0.00010574859386705832 0.0001354338062519167 0.00019437890752439357 0.00041228261608027716 0.0020267391071432145 0.014296277588744882 3.0153354475680783e-05 1.1491503795789674e-08 2.5235111185089864e-12 3.9318572234358606e-16 4.822376597618512e-20 4.346954140517909e-22 1.6657883594605995e-19 6.8353681350342744e-15 2.1129030889482406e-10 3.993472235706576e-06 0.012827954354126087 0.014823205357341126 0.018914684379245202 0.026214688886042378 0.037222347363820095 0.04662745011412016 0.03418731134762528 0.0239424493716038 0.028053761699741175 0.0367968194671376 0.04171337278801531 0.04209643475630987 0.03954738689869279 0.03484288702572552 0.027311071686445684 0.01443230632363328 2.265122076025769e-11 1.39023341170955e-05 2.5443328372255613e-05 3.56769918104181e-05 4.5472080435758105e-05 5.5624722967778656e-05 6.69755094008853e-05 8.057400778992263e-05 9.800213820271221e-05 0.00012224591277649463 0.0001611240315069943 0.00024664671079006347 0.0005784689193714401 0.0027248200425365313 0.016327804549506553 3.009886705108654e-05 1.1078204299848517e-08 2.38381891281648e-12 3.66533446420649e-16 4.43329306327197e-20 1.0538940080267882e-23 1.200246571487644e-19 5.2946255243569054e-15 1.7826354763069988e-10 3.8212093707961125e-06 0.019947304507073344 0.02208983163978474 0.02582228182986744 0.031885711417820484 0.040498366873130145 0.04785565427093966 0.04004939578474824 0.028610170106360036 0.026892680943733926 0.03287279052046458 0.038839643261925516 0.041158173936410185 0.03990602765386514 0.03581051927883514 0.02850545410973367 0.015645816339234796 2.3646630612340388e-11 1.4551611319595671e-05 2.717189490993092e-05 3.882422867757624e-05 5.036351749850865e-05 6.263797795002676e-05 7.661859975254494e-05 9.361749822357407e-05 0.00011578240817158035 0.00014754601677824524 0.00020122193764390888 0.00032527942806244225 0.0007852220933483726 0.0033752674815476147 0.017814143085120564 3.0267924758435233e-05 1.0891929405673463e-08 2.295668936166513e-12 3.458223550098891e-16 2.584998486453939e-19 1.91624809558936e-19 2.457429767823696e-19 3.713229747353902e-15 1.3863278345872578e-10 3.4738950773983627e-06 0.03045059211873486 0.03219602932390934 0.0347233931805684 0.038705305090328754 0.044445577806910816 0.049629155300391026 0.04526535110668879 0.03478708503125279 0.02867723779016738 0.030343655521816653 0.03548765191467865 0.03924717730841651 0.03963689845720416 0.03655083654639292 0.029680894416417133 0.01686406279297204 2.613567135374161e-11 1.611223277341119e-05 3.070340322215317e-05 4.4753308693178105e-05 5.9215035905950605e-05 7.513682928725808e-05 9.384719557126864e-05 0.00011729403422945624 0.0001488176467058196 0.00019529281789432376 0.00027464131080529524 0.0004497723648064596 0.0010243796856729242 0.003865441406214895 0.018460709750795567 3.112914240175847e-05 1.1072857453239146e-08 2.3035165262497038e-12 9.921618107970552e-15 8.729307528410967e-15 7.917466864210092e-15 7.156354973241241e-15 8.492742889880117e-15 8.725217004298924e-11 2.6845824775621613e-06 0.04122232740389362 0.042100035294483376 0.0431225986370977 0.045005244082914 0.04816805570776622 0.0514395083816904 0.049405767068858 0.0412647109711227 0.033085757043118405 0.030338654023909322 0.03281907498378089 0.036723978073863954 0.03862112416317172 0.036916583170180796 0.030777590947203726 0.018051090843711724 3.283719129840347e-11 2.02685